<?xml version="1.0"?>
<VTKFile type="UnstructuredGrid"  version="0.1"  >
<UnstructuredGrid>
<Piece  NumberOfPoints="2945" NumberOfCells="5525">
<Points>
<DataArray  type="Float64"  NumberOfComponents="3"  format="ascii">0 0.1 0  0.95 0.1 0  1 0.1 0  1 0 0  1.5 0 0  3 0 0  3 0.3 0  0 0.3 0  0.0197424558707114 0.1 0  0.03915669042224804 0.1 0  0.05824816022699029 0.1 0  0.07702223050332387 0.1 0  0.09548417327144595 0.1 0  0.1136391897583987 0.1 0  0.1314923700144587 0.1 0  0.1490487330862866 0.1 0  0.1663132263225292 0.1 0  0.1832906857273058 0.1 0  0.1999858946008978 0.1 0  0.216403545770297 0.1 0  0.2325482404045023 0.1 0  0.2484245348165176 0.1 0  0.2640368740372501 0.1 0  0.2793896589642241 0.1 0  0.2944872056237027 0.1 0  0.3093337469555254 0.1 0  0.3239334613687816 0.1 0  0.3382904528528069 0.1 0  0.3524087553122972 0.1 0  0.3662923366391824 0.1 0  0.3799451014768399 0.1 0  0.393370886920506 0.1 0  0.4065734648871676 0.1 0  0.419556546320114 0.1 0  0.4323237821343415 0.1 0  0.4448787573056132 0.1 0  0.4572250047274954 0.1 0  0.4693659926332938 0.1 0  0.4813051343276231 0.1 0  0.4930457849308193 0.1 0  0.5045912455271677 0.1 0  0.5159447600209797 0.1 0  0.5271095174127136 0.1 0  0.5380886618453393 0.1 0  0.5488852725463512 0.1 0  0.5595023868312478 0.1 0  0.5699429904313016 0.1 0  0.5802100167387366 0.1 0  0.5903063508274641 0.1 0  0.6002348329443006 0.1 0  0.6099982499579832 0.1 0  0.6195993483501782 0.1 0  0.6290408246013842 0.1 0  0.6383253354321616 0.1 0  0.6474554910757137 0.1 0  0.6564338522440513 0.1 0  0.6652629482939147 0.1 0  0.6739452579188948 0.1 0  0.6824832240165607 0.1 0  0.6908792415022103 0.1 0  0.6991356755989045 0.1 0  0.7072548438546967 0.1 0  0.7152390281534421 0.1 0  0.7230904746196039 0.1 0  0.7308113906759266 0.1 0  0.7384039435269326 0.1 0  0.7458702676581656 0.1 0  0.7532124631720397 0.1 0  0.7604325921167397 0.1 0  0.7675326856666862 0.1 0  0.7745147374421916 0.1 0  0.7813807123989068 0.1 0  0.7881325374362798 0.1 0  0.7947721131625659 0.1 0  0.8013013031866276 0.1 0  0.8077219449067021 0.1 0  0.8140358419942376 0.1 0  0.8202447685401882 0.1 0  0.8263504700910924 0.1 0  0.8323546643163114 0.1 0  0.8382590362474568 0.1 0  0.8440652473522128 0.1 0  0.8497749272799842 0.1 0  0.8553896837646281 0.1 0  0.8609110933285474 0.1 0  0.866340708855119 0.1 0  0.8716800550492284 0.1 0  0.8769306339052932 0.1 0  0.8820939206038667 0.1 0  0.8871713655604893 0.1 0  0.8921643975475726 0.1 0  0.8970744196575535 0.1 0  0.9019028106970642 0.1 0  0.9066509291259979 0.1 0  0.9113201098984042 0.1 0  0.9159116634553873 0.1 0  0.9204268818729691 0.1 0  0.9248670319440222 0.1 0  0.9292333656649013 0.1 0  0.9335271075812669 0.1 0  0.9377494640511216 0.1 0  0.941901623463222 0.1 0  0.9459847526686701 0.1 0  0.9538461538461205 0.1 0  0.9576923076922409 0.1 0  0.9615384615384381 0.1 0  0.9653846153846337 0.1 0  0.9692307692307542 0.1 0  0.9730769230768747 0.1 0  0.9769230769229952 0.1 0  0.9807692307691157 0.1 0  0.9846153846152361 0.1 0  0.9884615384614317 0.1 0  0.9923076923076356 0.1 0  0.9961538461538395 0.1 0  1 0.09591793123533533 0  1 0.09133596463859224 0  1 0.08619288104391448 0  1 0.08041996484521211 0  1 0.07394008421771697 0  1 0.06666666567302955 0  1 0.05850252932209174 0  1 0.04933859630113544 0  1 0.03905242821848202 0  1 0.02750659386753798 0  1 0.01454683679239736 0  1.015625 0 0  1.03125 0 0  1.046875 0 0  1.0625 0 0  1.078125 0 0  1.09375 0 0  1.109375 0 0  1.125 0 0  1.140625 0 0  1.15625 0 0  1.171875 0 0  1.1875 0 0  1.203125 0 0  1.21875 0 0  1.234375 0 0  1.25 0 0  1.265625 0 0  1.28125 0 0  1.296875 0 0  1.3125 0 0  1.328125 0 0  1.34375 0 0  1.359375 0 0  1.375 0 0  1.390625 0 0  1.40625 0 0  1.421875 0 0  1.4375 0 0  1.453125 0 0  1.46875 0 0  1.484375 0 0  1.515920751924515 0 0  1.531989369316721 0 0  1.54820720925872 0 0  1.564575665560501 0 0  1.581096138674279 0 0  1.597770029901263 0 0  1.614598783332311 0 0  1.631583831055205 0 0  1.64872661129721 0 0  1.666028606716533 0 0  1.683491276608443 0 0  1.701116134125304 0 0  1.718904673324128 0 0  1.736858414799339 0 0  1.754978895814663 0 0  1.773267661782904 0 0  1.791726281103402 0 0  1.810356325314689 0 0  1.8291593848892 0 0  1.848137076690385 0 0  1.867291007717254 0 0  1.886622833871288 0 0  1.90613418642363 0 0  1.925826753299799 0 0  1.945702199101513 0 0  1.96576223584749 0 0  1.986008569283268 0 0  2.006442931928877 0 0  2.02706707547783 0 0  2.047882750887917 0 0  2.06889175187935 0 0  2.090095860038271 0 0  2.111496891648636 0 0  2.133096679109554 0 0  2.154897066851056 0 0  2.176899916687499 0 0  2.199107102752146 0 0  2.22152053937028 0 0  2.244142122958061 0 0  2.266973806444078 0 0  2.290017523268154 0 0  2.313275249499252 0 0  2.336748971745516 0 0  2.360440702338606 0 0  2.384352453384031 0 0  2.408486280477412 0 0  2.432844240041185 0 0  2.457428414757088 0 0  2.482240901796653 0 0  2.507283830121838 0 0  2.532559332080812 0 0  2.558069568787417 0 0  2.583816724966441 0 0  2.60980299606584 0 0  2.636030600971886 0 0  2.662501790984011 0 0  2.689218818279327 0 0  2.716183964547616 0 0  2.743399548861297 0 0  2.77086788244719 0 0  2.798591312896326 0 0  2.826572223178268 0 0  2.854812990138617 0 0  2.883316031690714 0 0  2.912083780657189 0 0  2.941118704633482 0 0  2.970423276998917 0 0  3 0.02999999999994495 0  3 0.05999999999987042 0  3 0.089999999999783 0  3 0.119999999999701 0  3 0.149999999999619 0  3 0.179999999999692 0  3 0.2099999999997737 0  3 0.2399999999998511 0  3 0.2699999999999185 0  2.970138294777171 0.3 0  2.940375666438236 0.3 0  2.910711782853056 0.3 0  2.881146331305122 0.3 0  2.851678975030285 0.3 0  2.822309388626621 0.3 0  2.793037250095074 0.3 0  2.76386223529133 0.3 0  2.734784017903872 0.3 0  2.705802289276642 0.3 0  2.676916713794697 0.3 0  2.648126987654635 0.3 0  2.619432780406184 0.3 0  2.590833779385199 0.3 0  2.562329669847737 0.3 0  2.533920134950189 0.3 0  2.505604855727852 0.3 0  2.477383539822502 0.3 0  2.449255847639465 0.3 0  2.421221492569094 0.3 0  2.393280152486815 0.3 0  2.36543151914496 0.3 0  2.337675285481809 0.3 0  2.310011142385583 0.3 0  2.282438797441587 0.3 0  2.254957931061538 0.3 0  2.227568248063605 0.3 0  2.200269436651085 0.3 0  2.173061204949961 0.3 0  2.145943251515011 0.3 0  2.118915272469994 0.3 0  2.091976978084957 0.3 0  2.065128060700849 0.3 0  2.038368218849433 0.3 0  2.01169717777258 0.3 0  1.985114624111908 0.3 0  1.958620267850966 0.3 0  1.93221382054972 0.3 0  1.905894991850698 0.3 0  1.879663489459713 0.3 0  1.853519019126419 0.3 0  1.827461291053897 0.3 0  1.801490031354372 0.3 0  1.775604937580312 0.3 0  1.74980572560258 0.3 0  1.724092118631866 0.3 0  1.698463829173586 0.3 0  1.672920575782554 0.3 0  1.647462076974085 0.3 0  1.622088043536933 0.3 0  1.5967981978949 0.3 0  1.571592267767068 0.3 0  1.546469970305736 0.3 0  1.521431023814044 0.3 0  1.496475156230927 0.3 0  1.471602093687753 0.3 0  1.446811560490646 0.3 0  1.422103279101731 0.3 0  1.397476971708191 0.3 0  1.37293238939876 0.3 0  1.348469231419202 0.3 0  1.324087248732772 0.3 0  1.299786165921677 0.3 0  1.275565710847046 0.3 0  1.251425617644257 0.3 0  1.227365618676339 0.3 0  1.203385446174014 0.3 0  1.179484853067473 0.3 0  1.155663548773374 0.3 0  1.131921292279077 0.3 0  1.108257802159295 0.3 0  1.084672829009693 0.3 0  1.061166115303374 0.3 0  1.037737392995421 0.3 0  1.01438640299116 0.3 0  0.991112899770314 0.3 0  0.9679166155523955 0.3 0  0.944797284182564 0.3 0  0.921754678526042 0.3 0  0.8987885143602501 0.3 0  0.8758985548820624 0.3 0  0.8530845484099929 0.3 0  0.8303462351786988 0.3 0  0.8076833651172373 0.3 0  0.7850956864865304 0.3 0  0.7625829601354557 0.3 0  0.7401449314598274 0.3 0  0.717781337993959 0.3 0  0.6954919649675473 0.3 0  0.6732765357561226 0.3 0  0.6511348120768439 0.3 0  0.6290665642016573 0.3 0  0.6070715355430467 0.3 0  0.5851494825775325 0.3 0  0.5633001690203812 0.3 0  0.5415233562273221 0.3 0  0.5198187909431873 0.3 0  0.4981862401387795 0.3 0  0.4766254686134248 0.3 0  0.4551362360485234 0.3 0  0.4337182975262159 0.3 0  0.4123714223228037 0.3 0  0.3910953802377493 0.3 0  0.3698899313205595 0.3 0  0.3487548463710963 0.3 0  0.3276898864081783 0.3 0  0.3066948129116018 0.3 0  0.2857694003037476 0.3 0  0.2649134227095047 0.3 0  0.2441266417321288 0.3 0  0.2234088223399122 0.3 0  0.2027597568977288 0.3 0  0.1821792020676698 0.3 0  0.1616669305402443 0.3 0  0.1412227158799362 0.3 0  0.12084633013886 0.3 0  0.1005375673448281 0.3 0  0.08029618164595353 0.3 0  0.06012194778526769 0.3 0  0.04001466495039718 0.3 0  0.01997408913631205 0.3 0  0 0.2800000000000553 0  0 0.2600000000001105 0  0 0.2400000000001658 0  0 0.2200000000002211 0  0 0.2000000000002764 0  0 0.1800000000002244 0  0 0.1600000000001691 0  0 0.140000000000115 0  0 0.1200000000000564 0  1.133778471000506 0.01219539743990768 0  1.003741919047894 0.09354664821474232 0  0.9559421147150347 0.1035858189992458 0  0.9313792160389045 0.1037365237938103 0  0.9788461538460573 0.1033060829993555 0  0.9090102438250753 0.1037269304984056 0  0.8846304212778655 0.1043349840723655 0  0.8581503885465881 0.104741932962923 0  0.8286416220145676 0.1052762843984476 0  0.7982741772533339 0.1053575624517407 0  0.7708789559342691 0.1060290465840416 0  0.741870349714261 0.1078220590984258 0  0.7112469360040695 0.10685702926368 0  0.6783901541417233 0.1079959711853378 0  0.642884733623195 0.1075561996086514 0  0.6056235042367955 0.1085956039602543 0  0.5647007593786924 0.1083187281660325 0  1.1953125 0.01353164693413185 0  1.258148737344733 0.01268350115427042 0  1.320087046516829 0.01426312402966312 0  1.383495130751951 0.01432665475473204 0  1.4453125 0.01315663539200989 0  1.50886768312388 0.01395488397722681 0  0.9942307692307371 0.103330866937657 0  1.119309781943483 0.2802014914557878 0  1.572831235329714 0.01707210522554785 0  1.637611634353954 0.01209340368483431 0  1.709661292005932 0.0146870244871893 0  1.006561890631532 0.07068055446055937 0  1.784793444007901 0.01499371444634687 0  1.855459587353174 0.0
[...]
<PointData  Scalars="pressure"> 
<DataArray  type="Float64"  Name="pressure"  format="ascii">1.5725205674800256e+00  1.2655112830084261e+00  1.3857842616667122e+00  1.2897528158991265e+00  1.1221719955132947e+00  0.0000000000000000e+00  0.0000000000000000e+00  1.5725411456181482e+00  1.5665978523958486e+00  1.5607733906067864e+00  1.5550454877971636e+00  1.5494125091592394e+00  1.5438728065329830e+00  1.5384248328292836e+00  1.5330669975363229e+00  1.5277977432553218e+00  1.5226156054377862e+00  1.5175189668076192e+00  1.5125063819625406e+00  1.5075764234689615e+00  1.5027275649475285e+00  1.4979584145339448e+00  1.4932674814728824e+00  1.4886534035382666e+00  1.4841146899536026e+00  1.4796500454105195e+00  1.4752579840887849e+00  1.4709372425028420e+00  1.4666862590015093e+00  1.4625038471363734e+00  1.4583888379778422e+00  1.4543394119054365e+00  1.4503545231208177e+00  1.4464327106707098e+00  1.4425729080466134e+00  1.4387732543102063e+00  1.4350330765581174e+00  1.4313503903501839e+00  1.4277246107293349e+00  1.4241539955742901e+00  1.4206369775818888e+00  1.4171725596980813e+00  1.4137597415963152e+00  1.4103968255060875e+00  1.4070823675368815e+00  1.4038155351085233e+00  1.4005945203696146e+00  1.3974186191454212e+00  1.3942860189653785e+00  1.3911955356855743e+00  1.3881466141727783e+00  1.3851374626072059e+00  1.3821662148893574e+00  1.3792329347639081e+00  1.3763355096675463e+00  1.3734729456661083e+00  1.3706451546570915e+00  1.3678472407702356e+00  1.3650848360420664e+00  1.3623461907070640e+00  1.3596424299055181e+00  1.3569672878365397e+00  1.3543183066396554e+00  1.3516945678285028e+00  1.3490974867168326e+00  1.3465204633276042e+00  1.3439787323666219e+00  1.3414569868840946e+00  1.3389438970509633e+00  1.3364610150714353e+00  1.3340007818458581e+00  1.3315712417845109e+00  1.3291496845213615e+00  1.3267436124612138e+00  1.3243608069202837e+00  1.3220012756355886e+00  1.3196603023236184e+00  1.3173325942884766e+00  1.3150233241750700e+00  1.3127387034445330e+00  1.3104864125308040e+00  1.3082447723326085e+00  1.3060127203539000e+00  1.3038115921468063e+00  1.3016269297793144e+00  1.2994633206001176e+00  1.2973498438207482e+00  1.2952642505333913e+00  1.2931825608512790e+00  1.2911171227599323e+00  1.2891084389937721e+00  1.2871228103924084e+00  1.2851818231716496e+00  1.2832689477112778e+00  1.2814005615896888e+00  1.2796429298768970e+00  1.2769502497031506e+00  1.2800667079697321e+00  1.2551972045238684e+00  1.2971638621159285e+00  1.2661162556872623e+00  1.2705995746335101e+00  1.2677386234610448e+00  1.2673272379751979e+00  1.2282577682361782e+00  1.2308253891402949e+00  1.2526657912958659e+00  1.2820110618693155e+00  1.3154106176704135e+00  1.3489708464841730e+00  1.3793668832733570e+00  1.4037715079979480e+00  1.4202864645937661e+00  1.4294953479798405e+00  1.4055686434694972e+00  1.3940621698907811e+00  1.3581156234063629e+00  1.3469135680514994e+00  1.3347772277543619e+00  1.3258571700653348e+00  1.3177262038940991e+00  1.3112039303702197e+00  1.3056251608252010e+00  1.3003837165013283e+00  1.2959057382308299e+00  1.2921980407482330e+00  1.2866251872445973e+00  1.2818325897713905e+00  1.2766506652594942e+00  1.2715851564053355e+00  1.2664889415205529e+00  1.2623215197258957e+00  1.2593592143290344e+00  1.2558224947966272e+00  1.2509552749925070e+00  1.2448003167792083e+00  1.2369002719939326e+00  1.2270612413510820e+00  1.2157414736662435e+00  1.2030738846652818e+00  1.1895358167931969e+00  1.1758315033617008e+00  1.1626429526932782e+00  1.1503320311353877e+00  1.1396540006516016e+00  1.1324582894796760e+00  1.1257536051900814e+00  1.1234114489922922e+00  1.1221721603542081e+00  1.1230383259920942e+00  1.1249134123700313e+00  1.1294305240757585e+00  1.1315774736286668e+00  1.1337055558661873e+00  1.1340517734345772e+00  1.1325457987534580e+00  1.1286033153303625e+00  1.1129731050082088e+00  1.1012584436478468e+00  1.0870955369637638e+00  1.0710370142194221e+00  1.0521234088548930e+00  1.0327328687827138e+00  1.0121507874107898e+00  9.9477113089445190e-01  9.7681604330082006e-01  9.6044785213868678e-01  9.4674097613073027e-01  9.3616755874190150e-01  9.2851884990291911e-01  9.2361509353368010e-01  9.2071601476339093e-01  9.1923005263596747e-01  9.1795623541602134e-01  9.1749507841468336e-01  9.1373664176059022e-01  9.0980170725623255e-01  9.0214247330380593e-01  8.9170716194177224e-01  8.7882574922738221e-01  8.6294563633794807e-01  8.4506016314776022e-01  8.2352985058126826e-01  8.0151669364176592e-01  7.7752634712623292e-01  7.5264579710305624e-01  7.2909665525678591e-01  7.0459151697292688e-01  6.8122000365391788e-01  6.6022994634817289e-01  6.4256872215674798e-01  6.2772468912513102e-01  6.1588467123458879e-01  6.0608654034680687e-01  5.9769143810286685e-01  5.8945593795555096e-01  5.8032364579384754e-01  5.6949638260558322e-01  5.5654245240211386e-01  5.4111791672202358e-01  5.2330470595753520e-01  5.0320491604796824e-01  4.8168026936210395e-01  4.5892838506296108e-01  4.3498680554891800e-01  4.1037761285138458e-01  3.8775486336978776e-01  3.6249336487248501e-01  3.4067873411431526e-01  3.1722255138036259e-01  2.9521846875090335e-01  2.7628653171879913e-01  2.5510354462018570e-01  2.3711674859959889e-01  2.1755403864978631e-01  1.9814171034392192e-01  1.7806232694847857e-01  1.6022372308856520e-01  1.3785108604270396e-01  1.1729779836659852e-01  9.6126870136062387e-02  7.0726254773233563e-02  4.9266460291196523e-02  2.3628444957491689e-02  0.0000000000000000e+00  0.0000000000000000e+00  0.0000000000000000e+00  0.0000000000000000e+00  0.0000000000000000e+00  0.0000000000000000e+00  0.0000000000000000e+00  0.0000000000000000e+00  0.0000000000000000e+00  2.1595394080980164e-02  4.4844520452235644e-02  6.9067636428578966e-02  9.2056519943998952e-02  1.1562972755654043e-01  1.3963924993081958e-01  1.6425786189257596e-01  1.8923843330681314e-01  2.1440054253725391e-01  2.3944747678997896e-01  2.6406695509554967e-01  2.8784004476124614e-01  3.1037502508836667e-01  3.3138056705621094e-01  3.5062899081253496e-01  3.6811116397401533e-01  3.8405094762752956e-01  3.9905225516195403e-01  4.1406392471629500e-01  4.3012946884319464e-01  4.4828558864044282e-01  4.6923161544759917e-01  4.9334899646739155e-01  5.2022715144013953e-01  5.4968800987285060e-01  5.7999152208154703e-01  6.1064796803748078e-01  6.4063082010341588e-01  6.6863563092083556e-01  6.9443782986523772e-01  7.1746886372327312e-01  7.3679846678934491e-01  7.5142002652134243e-01  7.6142425793613533e-01  7.6562167606891240e-01  7.6685716438664919e-01  7.7133580450515726e-01  7.7675259527952534e-01  7.8759925718550650e-01  8.0562198649063432e-01  8.2678417682824568e-01  8.5493461466838871e-01  8.8411643458079725e-01  9.1268891242866068e-01  9.3894656866193493e-01  9.6163794884354525e-01  9.7990501027576637e-01  9.9458717708128486e-01  1.0064985567724398e+00  1.0150190191644040e+00  1.0211134119438652e+00  1.0260732144393110e+00  1.0328259217786775e+00  1.0396107923913707e+00  1.0491652857776399e+00  1.0615960789553331e+00  1.0763773012397915e+00  1.0924092322886398e+00  1.1091224247080711e+00  1.1256983028787375e+00  1.1412956886161554e+00  1.1553502830657065e+00  1.1688616510871241e+00  1.1806299282305093e+00  1.1908889260374798e+00  1.1997971230875386e+00  1.2088977413072410e+00  1.2176724354810577e+00  1.2269150537820805e+00  1.2367764734620945e+00  1.2472813877641138e+00  1.2583985713578671e+00  1.2682821787041809e+00  1.2775338225801574e+00  1.2859563577345094e+00  1.2940435585986747e+00  1.3010621619421381e+00  1.3069609788904135e+00  1.3119069341450948e+00  1.3172606051150761e+00  1.3224093684963520e+00  1.3275136909530592e+00  1.3327204179798762e+00  1.3380135521005299e+00  1.3434944927373103e+00  1.3491440978390321e+00  1.3549325137889949e+00  1.3608421606691894e+00  1.3668820376816095e+00  1.3730043209723186e+00  1.3792032792396536e+00  1.3854548780006000e+00  1.3917491064842438e+00  1.3980794373294847e+00  1.4044344347867939e+00  1.4108025391091885e+00  1.4171788914153558e+00  1.4235605907345203e+00  1.4299405684948845e+00  1.4363143729411645e+00  1.4426793927420680e+00  1.4490355739734819e+00  1.4553787097266373e+00  1.4617081320033820e+00  1.4680220677598117e+00  1.4743200396367462e+00  1.4806013389784960e+00  1.4868642771977334e+00  1.4931097734898475e+00  1.4993360939568035e+00  1.5055438517584014e+00  1.5117324379958559e+00  1.5179015117939598e+00  1.5240513025104392e+00  1.5301814478030151e+00  1.5362919520587488e+00  1.5423827706828503e+00  1.5484538791382088e+00  1.5545052785463298e+00  1.5605369613482283e+00  1.5665489179638883e+00  1.5725410900276480e+00  1.5725402490656892e+00  1.5725381393514390e+00  1.5725348575435691e+00  1.5725308612044844e+00  1.5725268708054634e+00  1.5725235769156189e+00  1.5725214833270136e+00  1.5725206391115856e+00  1.2530385047923505e+00  1.3597386251203250e+00  1.2454849884057519e+00  1.2742717619840698e+00  1.3579497005272068e+00  1.2817530400497530e+00  1.2917887669674155e+00  1.3024830263696980e+00  1.3139866184301694e+00  1.3253545068209514e+00  1.3351946443872131e+00  1.3452622299908708e+00  1.3555926597784484e+00  1.3663692070102549e+00  1.3777604368436389e+00  1.3894939831913886e+00  1.4022000029666897e+00  1.2221275162547278e+00  1.1695973474134371e+00  1.1284852730829000e+00  1.1229965861533948e+00  1.1329269116715504e+00  1.1170278104054072e+00  1.4152147527309711e+00  1.2432155487217509e+00  1.0624486190710807e+00  9.8849389976539359e-01  9.3138822082278450e-01  1.3181467685047572e+00  9.1728190164899182e-01  9.0609721171829505e-01  1.4153513571143841e+00  8.5430893326465973e-01  1.2048964893733178e+00  1.1632122594511352e+00  7.6206296162049181e-01  1.1013061072943771e+00  1.4297431878327858e+00  1.0361646514040355e+00  6.7170689542846784e-01  1.4438360522498717e+00  1.2646269055216903e+00  6.0976505500957612e-01  1.0010368195686801e+00  1.2737181170004037e+00  1.4599834556553934e+00  5.7452329854785034e-01  8.7059245959903153e-01  1.4777491714929383e+00  7.9559136282139542e-01  5.1369143314727350e-01  7.6742578694037711e-01  1.3045081087874497e+00  4.2051029721822469e-01  1.4956121965995559e+00  7.5545621037411914e-01  1.3203930558317623e+00  1.3360900673107539e+00  7.0647927826072432e-01  3.2923566207920835e-01  1.5155098306670063e+00  1.5303145313081643e+00  9.5167746951619203e-01  2.6546687221536941e-01  2.0568632563086756e-01  1.3576631529311312e+00  6.2551032248660343e-01  5.0467104382041528e-01  1.3763704762190641e+00  1.2663167468949144e+00  1.2716395183327471e+00  1.3947561069473595e+00  4.3807902526205778e-01  1.5000092202014378e-01  1.4195067610759908e+00  3.7575550314150646e-01  1.4520343886380163e+00  3.2112960732540774e-01  1.4837338296526055e+00  2.5215734419331609e-01  1.5023387586567667e+00  1.5392069103752977e+00  1.5211218466384138e+00  1.7681160770229556e-01  1.5674870813828956e+00  2.1444490516192131e-02  1.5468322021429755e+00  1.2995315474407596e+00  1.0578433709572860e-01  8.1695737516533487e-02  1.3353976338448905e+00  1.2756508690056652e+00  1.2907861184764218e+00  1.2230168498521603e+00  1.3462731460662314e+00  1.4076706415631348e+00  1.4328257573122209e+00  1.4656043367671676e+00  1.0230840120693281e+00  1.0686062708972803e+00  1.1329776169819157e+00  1.1863652128712190e+00  1.5051514368202714e+00  1.4864643039580760e+00  5.6508188350840971e-01  4.0582662382670454e-01  1.4692752417108372e+00  3.7649722632857846e-01  1.5513829660065466e+00  4.6954006972708356e-01  5.4890526368553072e-01  1.4520389903589987e+00  5.9262339003120246e-01  1.5674591600776735e+00  6.3467574752691858e-01  1.4369993094064293e+00  7.2052277234814388e-01  8.1099110428004473e-01  1.0945086608204297e+00  8.8639292577487716e-01  1.4222546404919973e+00  9.1461163729420325e-01  9.2068556138429791e-01  9.5381737342406603e-01  1.4086174501499968e+00  1.0227735153397195e+00  1.9027049087456258e-02  1.3958399034784879e+00  1.3835921637032484e+00  1.3717871937002446e+00  1.3612648951223671e+00  1.3501674932540830e+00  1.3401133121363000e+00  1.3300169222044274e+00  1.3183609042144147e+00  1.2407006652435217e+00  1.3069323186959358e+00  1.2959157051705923e+00  1.2856682433736513e+00  1.1971426385372945e+00  1.2755130456533681e+00  1.1215857756231740e+00  1.1444070071981443e+00  1.1285716150216925e+00  1.1300219976255896e+00  1.5678773064168188e+00  1.4032338590004068e+00  2.1056157047599479e-02  1.5578707446602085e+00  5.6735646708430613e-02  1.2862546797014722e+00  1.9191463286050779e-02  1.5680175928830091e+00  1.2811435823759416e+00  1.2794544753967796e+00  1.2740143831808119e+00  1.2766442887379947e+00  1.2711110992990557e+00  1.2724549834214149e+00  1.2670118956687815e+00  1.2669930076407192e+00  1.2621012969097678e+00  1.2602113812967708e+00  1.2569663903529908e+00  1.2530437769078897e+00  1.2526136314927818e+00  1.2474293091027269e+00  1.2505178059993864e+00  1.2454504193985529e+00  1.2518800938533403e+00  1.2472440371225151e+00  1.2555790817508479e+00  1.2519131771026082e+00  1.2593098905215281e+00  1.2444714055552009e+00  1.2639774461333606e+00  1.2653290977767049e+00  1.2502987231502456e+00  1.2465203724473486e+00  1.2697549687067626e+00  1.2681179468804396e+00  1.2710486257097056e+00  1.2660815700606824e+00  1.2670258987231831e+00  1.2589650748287957e+00  1.2565953729057004e+00  1.2471665407340975e+00  1.2408784632133572e+00  1.2301264995201857e+00  1.2203505456311541e+00  1.2090417803244391e+00  1.1971719362126800e+00  1.1880383626092641e+00  1.1738242655353675e+00  1.1668382951774989e+00  1.1518757269472393e+00  1.1484884411366856e+00  1.1333251080342017e+00  1.1333959625546115e+00  1.1190053199197514e+00  1.1227474671955679e+00  1.1097316236746531e+00  1.1155571799443780e+00  1.1058658503656722e+00  1.2526900603804210e+00  1.2545054148295376e+00  1.1116163993926640e+00  1.1047310461629034e+00  1.1101699257831830e+00  1.1082510653283817e+00  1.1104936202115656e+00  1.1118670544075751e+00  1.1107525017695927e+00  1.1154683704806607e+00  1.1096861811618879e+00  1.1171178765626411e+00  1.2630816150747342e+00  1.1066969359185936e+00  1.1158463135394385e+00  1.1012740629211684e+00  1.1109266879719522e+00  1.0931446523533133e+00  1.1022121434602532e+00  1.2581399026397224e+00  1.2631575732066260e+00  1.2492622583171746e+00  1.0827606104626641e+00  1.0898404715538583e+00  1.2525525902979846e+00  1.0707491427498581e+00  1.0744018963505300e+00  1.0567211282458402e+00  1.0565456955104340e+00  1.0418723365330935e+00  1.0371385554766244e+00  1.2498834964873657e+00  1.0264298154657272e+00  1.0172675767375421e+00  1.0113296122556881e+00  9.9802786454166714e-01  9.9651051340432351e-01  9.8006585081155539e-01  1.2553101705863523e+00  1.1996471197538829e+00  9.8246537986394999e-01  9.6429869617400155e-01  1.2645614816650348e+00  1.2711309517071330e+00  1.2603720191337819e+00  1.1493083349802153e+00  9.7012797042728971e-01  9.5010044271208793e-01  9.5738520005740946e-01  9.3777466009798538e-01  9.4409992664560605e-01  9.2668346045462036e-01  1.1080306188771687e+00  9.4414713153557783e-01  1.0515005542291493e+00  1.1254571586461519e+00  9.2954650938360228e-01  9.1530381939414929e-01  9.1381169018374175e-01  9.0647841336883095e-01  9.0257876872680542e-01  8.9842758269571854e-01  8.8820822450120995e-01  8.8862132121435222e-01  8.7206334343187641e-01  8.7646218407277343e-01  8.5480570167224834e-01  8.6276918914636935e-01  8.3766295025047710e-01  8.4801692875107859e-01  8.2106799349562309e-01  8.3274151129917007e-01  8.0674140556536411e-01  8.1833245857379189e-01  7.9419111541629739e-01  8.0285138435559922e-01  7.8296242272108152e-01  7.8702669652179735e-01  7.7196137171641221e-01  7.7029428479205697e-01  1.1100712560338042e+00  1.1217393101447952e+00  7.6094275850157289e-01  7.5243463723743953e-01  7.4850243502365954e-01  7.3380351295678969e-01  1.2621887267154481e+00  7.3417527066779853e-01  7.1418676416177773e-01  1.1204365072342739e+00  1.1836357493678760e+00  1.2705920313535592e+00  1.2771600280536415e+00  1.2800801581433410e+00  1.2835905575855373e+00  1.2877922042304983e+00  1.2888332138014340e+00  1.2928059869037041e+00  1.2919137961351326e+00  1.2943504416478775e+00  1.2927088657281134e+00  1.2932235080352328e+00  1.2920678431060850e+00  1.2901829894553924e+00  1.2906722512224691e+00  1.2863772775591173e+00  1.2889384267436943e+00  1.2849951122930177e+00  1.2890358486075515e+00  1.2845209995898972e+00  1.2887397471475379e+00  1.2852831117151593e+00  1.2900142259404499e+00  1.2871936302968958e+00  1.2920640731963491e+00  1.2898519262222943e+00  1.2946593017168198e+00  1.2930731269567659e+00  1.2977609993533357e+00  1.2935296822840208e+00  1.2996382447091888e+00  1.3026030163691511e+00  1.3011448127692484e+00  1.3057539106495801e+00  1.3047018180633922e+00  1.3090896673779124e+00  1.3081979569761311e+00  1.3125075024346176e+00  1.3102811792630098e+00  1.3113678209241737e+00  1.3159690126193697e+00  1.3157716493367562e+00  1.3197247216000014e+00  1.3201961889691343e+00  1.3237359390243013e+00  1.3234951663955392e+00  1.3273270101726087e+00  1.3274036939951208e+00  1.3309934016178053e+00  1.2946866076489165e+00  1.3312869501060980e+00  1.3347416648138879e+00  1.3347643096914588e+00  1.3383869305336107e+00  1.3384851823764929e+00  1.3420545893731173e+00  1.3422477521211593e+00  1.3457386079695803e+00  1.2871089130903224e+00  1.2922608480108961e+00  1.2976920231973605e+00  1.2807749079971986e+00  1.3460882181357050e+00  1.3494873047391462e+00  1.3492635163551556e+00  1.3529995909090242e+00  1.3532838050380307e+00  1.3567568305372131e+00  1.3571449222454923e+00  1.3605765585940350e+00  1.3602301211406209e+00  1.3640175287944305e+00  1.3644933950479086e+00  1.3678712752116042e+00  1.3242785319248189e+00  1.3684475550105619e+00  1.3717277464104605e+00  1.2823731225044122e+00  1.2922571284738416e+00  1.3384621295984875e+00  1.2886301709100176e+00  1.3723529229728006e+00  1.3757023546517795e+00  1.3748384288262985e+00  1.3790441133286404e+00  1.3796180838263514e+00  1.3831064457155156e+00  1.3825314836464007e+00  1.3865888502209864e+00  1.3871785425122987e+00  1.3906470156162836e+00  1.3040915784863589e+00  1.3912470979830396e+00  1.3947778668490494e+00  1.3638963896171008e+00  1.3245146330979856e+00  1.1089016173765847e+00  1.3122293189932164e+00  1.3941603896076222e+00  1.3983065464663016e+00  1.3989252031761383e+00  1.4024510468542661e+00  7.1887699375864300e-01  6.9532901694444649e-01  7.0242938380089492e-01  6.7660860311623372e-01  6.8453982889226128e-01  6.5878290870703926e-01  1.4032378048251086e+00  1.4067140453063736e+00  1.0741261093002050e+00  1.4060395534518111e+00  1.4102732425442033e+00  1.4108244082154473e+00  1.4144816776793880e+00  1.2735123306731246e+00  1.2830007061261908e+00  1.3388074879510885e+00  8.7356320369408880e-01  6.6553000102821991e-01  6.4146226356836145e-01  9.0703325614782238e-01  7.8561150195919860e-01  6.3560513269591234e-01  6.2118162530742249e-01  6.2409171564402444e-01  6.0716680214921004e-01  6.0573568013086654e-01  5.9259710247523045e-01  5.8609948704534554e-01  5.7687799537458706e-01  5.6505602162558999e-01  5.5919838954076762e-01  5.4285844137954220e-01  5.3951347707379671e-01  5.2009992832823992e-01  5.1886718952272004e-01  4.9773565440113121e-01  4.9780473656847013e-01  4.7683900417545705e-01  4.7697710150895062e-01  4.5722623898962678e-01  4.5650330375788251e-01  4.3847686766925253e-01  4.3652106570118254e-01  4.2088204154099851e-01  4.1676331398104294e-01  1.4150459071079877e+00  1.4187200567639764e+00  1.4184169126421995e+00  1.4225217421143614e+00  1.4230314506868278e+00  1.4267820258158956e+00  4.0398994549695161e-01  3.9724764749489427e-01  3.8710142817759358e-01  3.7748036593742618e-01  3.6848114031762175e-01  3.5737655633388493e-01  6.9131153331021522e-01  1.4259442583086026e+00  1.4305996942203107e+00  1.4313029664418249e+00  1.4351383971478000e+00  1.3539245585409752e+00  1.3576301191475233e+00  1.4345872483320745e+00  1.4390646018344067e+00  1.4394811033101962e+00  1.4434870921600411e+00  1.4438990099061721e+00  1.4479154698089758e+00  1.447502072