<?xml version="1.0"?>
<VTKFile type="UnstructuredGrid"  version="0.1"  >
<UnstructuredGrid>
<Piece  NumberOfPoints="2945" NumberOfCells="5525">
<Points>
<DataArray  type="Float64"  NumberOfComponents="3"  format="ascii">0 0.1 0  0.95 0.1 0  1 0.1 0  1 0 0  1.5 0 0  3 0 0  3 0.3 0  0 0.3 0  0.0197424558707114 0.1 0  0.03915669042224804 0.1 0  0.05824816022699029 0.1 0  0.07702223050332387 0.1 0  0.09548417327144595 0.1 0  0.1136391897583987 0.1 0  0.1314923700144587 0.1 0  0.1490487330862866 0.1 0  0.1663132263225292 0.1 0  0.1832906857273058 0.1 0  0.1999858946008978 0.1 0  0.216403545770297 0.1 0  0.2325482404045023 0.1 0  0.2484245348165176 0.1 0  0.2640368740372501 0.1 0  0.2793896589642241 0.1 0  0.2944872056237027 0.1 0  0.3093337469555254 0.1 0  0.3239334613687816 0.1 0  0.3382904528528069 0.1 0  0.3524087553122972 0.1 0  0.3662923366391824 0.1 0  0.3799451014768399 0.1 0  0.393370886920506 0.1 0  0.4065734648871676 0.1 0  0.419556546320114 0.1 0  0.4323237821343415 0.1 0  0.4448787573056132 0.1 0  0.4572250047274954 0.1 0  0.4693659926332938 0.1 0  0.4813051343276231 0.1 0  0.4930457849308193 0.1 0  0.5045912455271677 0.1 0  0.5159447600209797 0.1 0  0.5271095174127136 0.1 0  0.5380886618453393 0.1 0  0.5488852725463512 0.1 0  0.5595023868312478 0.1 0  0.5699429904313016 0.1 0  0.5802100167387366 0.1 0  0.5903063508274641 0.1 0  0.6002348329443006 0.1 0  0.6099982499579832 0.1 0  0.6195993483501782 0.1 0  0.6290408246013842 0.1 0  0.6383253354321616 0.1 0  0.6474554910757137 0.1 0  0.6564338522440513 0.1 0  0.6652629482939147 0.1 0  0.6739452579188948 0.1 0  0.6824832240165607 0.1 0  0.6908792415022103 0.1 0  0.6991356755989045 0.1 0  0.7072548438546967 0.1 0  0.7152390281534421 0.1 0  0.7230904746196039 0.1 0  0.7308113906759266 0.1 0  0.7384039435269326 0.1 0  0.7458702676581656 0.1 0  0.7532124631720397 0.1 0  0.7604325921167397 0.1 0  0.7675326856666862 0.1 0  0.7745147374421916 0.1 0  0.7813807123989068 0.1 0  0.7881325374362798 0.1 0  0.7947721131625659 0.1 0  0.8013013031866276 0.1 0  0.8077219449067021 0.1 0  0.8140358419942376 0.1 0  0.8202447685401882 0.1 0  0.8263504700910924 0.1 0  0.8323546643163114 0.1 0  0.8382590362474568 0.1 0  0.8440652473522128 0.1 0  0.8497749272799842 0.1 0  0.8553896837646281 0.1 0  0.8609110933285474 0.1 0  0.866340708855119 0.1 0  0.8716800550492284 0.1 0  0.8769306339052932 0.1 0  0.8820939206038667 0.1 0  0.8871713655604893 0.1 0  0.8921643975475726 0.1 0  0.8970744196575535 0.1 0  0.9019028106970642 0.1 0  0.9066509291259979 0.1 0  0.9113201098984042 0.1 0  0.9159116634553873 0.1 0  0.9204268818729691 0.1 0  0.9248670319440222 0.1 0  0.9292333656649013 0.1 0  0.9335271075812669 0.1 0  0.9377494640511216 0.1 0  0.941901623463222 0.1 0  0.9459847526686701 0.1 0  0.9538461538461205 0.1 0  0.9576923076922409 0.1 0  0.9615384615384381 0.1 0  0.9653846153846337 0.1 0  0.9692307692307542 0.1 0  0.9730769230768747 0.1 0  0.9769230769229952 0.1 0  0.9807692307691157 0.1 0  0.9846153846152361 0.1 0  0.9884615384614317 0.1 0  0.9923076923076356 0.1 0  0.9961538461538395 0.1 0  1 0.09591793123533533 0  1 0.09133596463859224 0  1 0.08619288104391448 0  1 0.08041996484521211 0  1 0.07394008421771697 0  1 0.06666666567302955 0  1 0.05850252932209174 0  1 0.04933859630113544 0  1 0.03905242821848202 0  1 0.02750659386753798 0  1 0.01454683679239736 0  1.015625 0 0  1.03125 0 0  1.046875 0 0  1.0625 0 0  1.078125 0 0  1.09375 0 0  1.109375 0 0  1.125 0 0  1.140625 0 0  1.15625 0 0  1.171875 0 0  1.1875 0 0  1.203125 0 0  1.21875 0 0  1.234375 0 0  1.25 0 0  1.265625 0 0  1.28125 0 0  1.296875 0 0  1.3125 0 0  1.328125 0 0  1.34375 0 0  1.359375 0 0  1.375 0 0  1.390625 0 0  1.40625 0 0  1.421875 0 0  1.4375 0 0  1.453125 0 0  1.46875 0 0  1.484375 0 0  1.515920751924515 0 0  1.531989369316721 0 0  1.54820720925872 0 0  1.564575665560501 0 0  1.581096138674279 0 0  1.597770029901263 0 0  1.614598783332311 0 0  1.631583831055205 0 0  1.64872661129721 0 0  1.666028606716533 0 0  1.683491276608443 0 0  1.701116134125304 0 0  1.718904673324128 0 0  1.736858414799339 0 0  1.754978895814663 0 0  1.773267661782904 0 0  1.791726281103402 0 0  1.810356325314689 0 0  1.8291593848892 0 0  1.848137076690385 0 0  1.867291007717254 0 0  1.886622833871288 0 0  1.90613418642363 0 0  1.925826753299799 0 0  1.945702199101513 0 0  1.96576223584749 0 0  1.986008569283268 0 0  2.006442931928877 0 0  2.02706707547783 0 0  2.047882750887917 0 0  2.06889175187935 0 0  2.090095860038271 0 0  2.111496891648636 0 0  2.133096679109554 0 0  2.154897066851056 0 0  2.176899916687499 0 0  2.199107102752146 0 0  2.22152053937028 0 0  2.244142122958061 0 0  2.266973806444078 0 0  2.290017523268154 0 0  2.313275249499252 0 0  2.336748971745516 0 0  2.360440702338606 0 0  2.384352453384031 0 0  2.408486280477412 0 0  2.432844240041185 0 0  2.457428414757088 0 0  2.482240901796653 0 0  2.507283830121838 0 0  2.532559332080812 0 0  2.558069568787417 0 0  2.583816724966441 0 0  2.60980299606584 0 0  2.636030600971886 0 0  2.662501790984011 0 0  2.689218818279327 0 0  2.716183964547616 0 0  2.743399548861297 0 0  2.77086788244719 0 0  2.798591312896326 0 0  2.826572223178268 0 0  2.854812990138617 0 0  2.883316031690714 0 0  2.912083780657189 0 0  2.941118704633482 0 0  2.970423276998917 0 0  3 0.02999999999994495 0  3 0.05999999999987042 0  3 0.089999999999783 0  3 0.119999999999701 0  3 0.149999999999619 0  3 0.179999999999692 0  3 0.2099999999997737 0  3 0.2399999999998511 0  3 0.2699999999999185 0  2.970138294777171 0.3 0  2.940375666438236 0.3 0  2.910711782853056 0.3 0  2.881146331305122 0.3 0  2.851678975030285 0.3 0  2.822309388626621 0.3 0  2.793037250095074 0.3 0  2.76386223529133 0.3 0  2.734784017903872 0.3 0  2.705802289276642 0.3 0  2.676916713794697 0.3 0  2.648126987654635 0.3 0  2.619432780406184 0.3 0  2.590833779385199 0.3 0  2.562329669847737 0.3 0  2.533920134950189 0.3 0  2.505604855727852 0.3 0  2.477383539822502 0.3 0  2.449255847639465 0.3 0  2.421221492569094 0.3 0  2.393280152486815 0.3 0  2.36543151914496 0.3 0  2.337675285481809 0.3 0  2.310011142385583 0.3 0  2.282438797441587 0.3 0  2.254957931061538 0.3 0  2.227568248063605 0.3 0  2.200269436651085 0.3 0  2.173061204949961 0.3 0  2.145943251515011 0.3 0  2.118915272469994 0.3 0  2.091976978084957 0.3 0  2.065128060700849 0.3 0  2.038368218849433 0.3 0  2.01169717777258 0.3 0  1.985114624111908 0.3 0  1.958620267850966 0.3 0  1.93221382054972 0.3 0  1.905894991850698 0.3 0  1.879663489459713 0.3 0  1.853519019126419 0.3 0  1.827461291053897 0.3 0  1.801490031354372 0.3 0  1.775604937580312 0.3 0  1.74980572560258 0.3 0  1.724092118631866 0.3 0  1.698463829173586 0.3 0  1.672920575782554 0.3 0  1.647462076974085 0.3 0  1.622088043536933 0.3 0  1.5967981978949 0.3 0  1.571592267767068 0.3 0  1.546469970305736 0.3 0  1.521431023814044 0.3 0  1.496475156230927 0.3 0  1.471602093687753 0.3 0  1.446811560490646 0.3 0  1.422103279101731 0.3 0  1.397476971708191 0.3 0  1.37293238939876 0.3 0  1.348469231419202 0.3 0  1.324087248732772 0.3 0  1.299786165921677 0.3 0  1.275565710847046 0.3 0  1.251425617644257 0.3 0  1.227365618676339 0.3 0  1.203385446174014 0.3 0  1.179484853067473 0.3 0  1.155663548773374 0.3 0  1.131921292279077 0.3 0  1.108257802159295 0.3 0  1.084672829009693 0.3 0  1.061166115303374 0.3 0  1.037737392995421 0.3 0  1.01438640299116 0.3 0  0.991112899770314 0.3 0  0.9679166155523955 0.3 0  0.944797284182564 0.3 0  0.921754678526042 0.3 0  0.8987885143602501 0.3 0  0.8758985548820624 0.3 0  0.8530845484099929 0.3 0  0.8303462351786988 0.3 0  0.8076833651172373 0.3 0  0.7850956864865304 0.3 0  0.7625829601354557 0.3 0  0.7401449314598274 0.3 0  0.717781337993959 0.3 0  0.6954919649675473 0.3 0  0.6732765357561226 0.3 0  0.6511348120768439 0.3 0  0.6290665642016573 0.3 0  0.6070715355430467 0.3 0  0.5851494825775325 0.3 0  0.5633001690203812 0.3 0  0.5415233562273221 0.3 0  0.5198187909431873 0.3 0  0.4981862401387795 0.3 0  0.4766254686134248 0.3 0  0.4551362360485234 0.3 0  0.4337182975262159 0.3 0  0.4123714223228037 0.3 0  0.3910953802377493 0.3 0  0.3698899313205595 0.3 0  0.3487548463710963 0.3 0  0.3276898864081783 0.3 0  0.3066948129116018 0.3 0  0.2857694003037476 0.3 0  0.2649134227095047 0.3 0  0.2441266417321288 0.3 0  0.2234088223399122 0.3 0  0.2027597568977288 0.3 0  0.1821792020676698 0.3 0  0.1616669305402443 0.3 0  0.1412227158799362 0.3 0  0.12084633013886 0.3 0  0.1005375673448281 0.3 0  0.08029618164595353 0.3 0  0.06012194778526769 0.3 0  0.04001466495039718 0.3 0  0.01997408913631205 0.3 0  0 0.2800000000000553 0  0 0.2600000000001105 0  0 0.2400000000001658 0  0 0.2200000000002211 0  0 0.2000000000002764 0  0 0.1800000000002244 0  0 0.1600000000001691 0  0 0.140000000000115 0  0 0.1200000000000564 0  1.133778471000506 0.01219539743990768 0  1.003741919047894 0.09354664821474232 0  0.9559421147150347 0.1035858189992458 0  0.9313792160389045 0.1037365237938103 0  0.9788461538460573 0.1033060829993555 0  0.9090102438250753 0.1037269304984056 0  0.8846304212778655 0.1043349840723655 0  0.8581503885465881 0.104741932962923 0  0.8286416220145676 0.1052762843984476 0  0.7982741772533339 0.1053575624517407 0  0.7708789559342691 0.1060290465840416 0  0.741870349714261 0.1078220590984258 0  0.7112469360040695 0.10685702926368 0  0.6783901541417233 0.1079959711853378 0  0.642884733623195 0.1075561996086514 0  0.6056235042367955 0.1085956039602543 0  0.5647007593786924 0.1083187281660325 0  1.1953125 0.01353164693413185 0  1.258148737344733 0.01268350115427042 0  1.320087046516829 0.01426312402966312 0  1.383495130751951 0.01432665475473204 0  1.4453125 0.01315663539200989 0  1.50886768312388 0.01395488397722681 0  0.9942307692307371 0.103330866937657 0  1.119309781943483 0.2802014914557878 0  1.572831235329714 0.01707210522554785 0  1.637611634353954 0.01209340368483431 0  1.709661292005932 0.0146870244871893 0  1.006561890631532 0.07068055446055937 0  1.784793444007901 0.01499371444634687 0  1.855459587353174 0.0
[...]
<PointData  Scalars="pressure"> 
<DataArray  type="Float64"  Name="pressure"  format="ascii">-2.0611514583719416e+01  -2.1993826202466078e+01  -2.1159724080522320e+01  -1.9769771071321159e+01  -1.5164906289364058e+01  0.0000000000000000e+00  0.0000000000000000e+00  -2.0611493106197099e+01  -2.0617437323511403e+01  -2.0623261859097632e+01  -2.0628989893458968e+01  -2.0634623075315925e+01  -2.0640163067792187e+01  -2.0645611425122848e+01  -2.0650969785898788e+01  -2.0656239709312999e+01  -2.0661422702657553e+01  -2.0666520482537265e+01  -2.0671534486173460e+01  -2.0676466217749972e+01  -2.0681317316262177e+01  -2.0686089271440206e+01  -2.0690783704824227e+01  -2.0695402130654553e+01  -2.0699946213573831e+01  -2.0704417495783602e+01  -2.0708817703448197e+01  -2.0713148434733807e+01  -2.0717411633246854e+01  -2.0721608717039679e+01  -2.0725741555910666e+01  -2.0729812604864843e+01  -2.0733823557951702e+01  -2.0737776505654381e+01  -2.0741673008262058e+01  -2.0745518247037772e+01  -2.0749310493498395e+01  -2.0753056003715219e+01  -2.0756754178278378e+01  -2.0760411500716305e+01  -2.0764030278780130e+01  -2.0767614494060219e+01  -2.0771164565872667e+01  -2.0774688280243826e+01  -2.0778188518249848e+01  -2.0781670918693145e+01  -2.0785142967066939e+01  -2.0788605347059441e+01  -2.0792067782201585e+01  -2.0795538418861494e+01  -2.0799014759853350e+01  -2.0802514857640048e+01  -2.0806048356852731e+01  -2.0809614240736298e+01  -2.0813232973082318e+01  -2.0816911818046545e+01  -2.0820648868932423e+01  -2.0824489587570795e+01  -2.0828394287833415e+01  -2.0832457309667365e+01  -2.0836611437569008e+01  -2.0840901771557618e+01  -2.0845359378382458e+01  -2.0850013986657029e+01  -2.0854844408765324e+01  -2.0859922503611436e+01  -2.0865180252547535e+01  -2.0870724921385875e+01  -2.0876661940514854e+01  -2.0882856890062609e+01  -2.0889387194834946e+01  -2.0896263003805053e+01  -2.0903638991252141e+01  -2.0911491409360565e+01  -2.0919851569236840e+01  -2.0928730009156155e+01  -2.0938200127816000e+01  -2.0948365837832977e+01  -2.0959253716298701e+01  -2.0970910616326019e+01  -2.0983324281528102e+01  -2.0996673577904655e+01  -2.1011128288168024e+01  -2.1026591484363955e+01  -2.1043314954341270e+01  -2.1061337970970694e+01  -2.1080639050735687e+01  -2.1101444048300554e+01  -2.1124203303674772e+01  -2.1148965551275481e+01  -2.1175803161537580e+01  -2.1204961693652589e+01  -2.1236914932133324e+01  -2.1271953373500175e+01  -2.1310736503758360e+01  -2.1353706294589536e+01  -2.1401593455723933e+01  -2.1455005094745996e+01  -2.1514825463674420e+01  -2.1582620901256686e+01  -2.1661002324762212e+01  -2.1753459826740333e+01  -2.1865227577748357e+01  -2.2182127358311192e+01  -2.2382612087965530e+01  -2.2557583949524489e+01  -2.2690912828040560e+01  -2.2768855390971851e+01  -2.2785196618271932e+01  -2.2734561286951958e+01  -2.2618660583485440e+01  -2.2436695096445114e+01  -2.2193579338487766e+01  -2.1897333515441176e+01  -2.1547218936195726e+01  -2.0852292826814139e+01  -2.0644836366082775e+01  -2.0485443291392283e+01  -2.0347991459041573e+01  -2.0227214083495745e+01  -2.0122996087833684e+01  -2.0029509129245948e+01  -1.9948379992629295e+01  -1.9879286277306701e+01  -1.9823903229865607e+01  -1.9785430826613641e+01  -1.9751102107617154e+01  -1.9703028775855735e+01  -1.9628653116769822e+01  -1.9533102980672073e+01  -1.9422664953792218e+01  -1.9298751241389354e+01  -1.9160565376529135e+01  -1.9016617963183961e+01  -1.8869951606569742e+01  -1.8719450187361666e+01  -1.8566659795359101e+01  -1.8412456240177633e+01  -1.8256025126350689e+01  -1.8098287729872535e+01  -1.7938963219765277e+01  -1.7777843156578317e+01  -1.7615428742359846e+01  -1.7452686147485675e+01  -1.7288983750099316e+01  -1.7120073117602804e+01  -1.6957862253493783e+01  -1.6789720666906931e+01  -1.6626684571670349e+01  -1.6464064763011578e+01  -1.6302882271496408e+01  -1.6132292040702588e+01  -1.5972003124071126e+01  -1.5809758731307456e+01  -1.5648451454851386e+01  -1.5486904267262823e+01  -1.5325821922899955e+01  -1.5000850280029590e+01  -1.4834642155002749e+01  -1.4665872670319516e+01  -1.4494935554090290e+01  -1.4326306441825148e+01  -1.4154221752692189e+01  -1.3981003046045128e+01  -1.3794194311257698e+01  -1.3613171576682959e+01  -1.3433423408677562e+01  -1.3252497718120658e+01  -1.3069569714768473e+01  -1.2886125801290715e+01  -1.2702046164789678e+01  -1.2518019921932071e+01  -1.2333311686017163e+01  -1.2147516399218222e+01  -1.1955041011822464e+01  -1.1769489536401256e+01  -1.1574387940097967e+01  -1.1383364822299496e+01  -1.1191399165580142e+01  -1.0996311892328622e+01  -1.0800819637741956e+01  -1.0603174582111722e+01  -1.0407793013635084e+01  -1.0205414520097900e+01  -1.0001590985734083e+01  -9.7939358333418145e+00  -9.5769927341655361e+00  -9.3647408762360129e+00  -9.1521343447279264e+00  -8.9361735090164416e+00  -8.7149624804726891e+00  -8.4915815754288158e+00  -8.2650558966960457e+00  -8.0366525099828667e+00  -7.8053294124272838e+00  -7.5724451175772707e+00  -7.3383993272341943e+00  -7.1033398585463274e+00  -6.8671246645936082e+00  -6.6305554404975187e+00  -6.3936505292668704e+00  -6.1565254393178357e+00  -5.9170251637494626e+00  -5.6763581314538269e+00  -5.4357142217908976e+00  -5.1924315484900205e+00  -4.9397042776977873e+00  -4.6952303750658553e+00  -4.4376558368803760e+00  -4.1862288558642948e+00  -3.9272644784311894e+00  -3.6562004243465158e+00  -3.3933228647547549e+00  -3.1172066629286985e+00  -2.8468685262260056e+00  -2.5741553775628345e+00  -2.2976927695810097e+00  -2.0084535185001982e+00  -1.7328442322232085e+00  -1.4483155242133121e+00  -1.1627082986687660e+00  -8.8260681035782984e-01  -5.8347810624621388e-01  -2.9598325795819436e-01  0.0000000000000000e+00  0.0000000000000000e+00  0.0000000000000000e+00  0.0000000000000000e+00  0.0000000000000000e+00  0.0000000000000000e+00  0.0000000000000000e+00  0.0000000000000000e+00  0.0000000000000000e+00  -3.0526753109195071e-01  -6.0478387135650924e-01  -8.9547469360554310e-01  -1.1912801660359058e+00  -1.4873778963126716e+00  -1.7825894922348466e+00  -2.0750314467604940e+00  -2.3653520533683530e+00  -2.6539232028235813e+00  -2.9410762147736595e+00  -3.2271427486053059e+00  -3.5129575517389187e+00  -3.7991116571653820e+00  -4.0859131927218719e+00  -4.3738037761363193e+00  -4.6628788567548334e+00  -4.9532553574288336e+00  -5.2444680545356652e+00  -5.5351523565171483e+00  -5.8240028561932906e+00  -6.1097433946309110e+00  -6.3917763056476984e+00  -6.6696845668338298e+00  -6.9439237474044742e+00  -7.2140229420391195e+00  -7.4841445189655325e+00  -7.7539703516886522e+00  -8.0241622894580598e+00  -8.2968875138828970e+00  -8.5686574947565450e+00  -8.8376614794541055e+00  -9.1044737835736793e+00  -9.3702788384822782e+00  -9.6414296903368903e+00  -9.9153294592368919e+00  -1.0192077775827258e+01  -1.0458115482639055e+01  -1.0729822992433611e+01  -1.1001812401608024e+01  -1.1270912303680811e+01  -1.1550775044466837e+01  -1.1820704322051061e+01  -1.2089883345403612e+01  -1.2357709064621703e+01  -1.2623464402730283e+01  -1.2887645414269100e+01  -1.3152286621447127e+01  -1.3413639745252633e+01  -1.3669889837921348e+01  -1.3927083356516004e+01  -1.4186667719520354e+01  -1.4447037574518566e+01  -1.4700671101113940e+01  -1.4960772716811890e+01  -1.5221004578212197e+01  -1.5479662290877307e+01  -1.5736806413669951e+01  -1.5993747075796099e+01  -1.6249005742265535e+01  -1.6502719654959343e+01  -1.6755757613092168e+01  -1.7008819242858124e+01  -1.7257438027236660e+01  -1.7506014632258005e+01  -1.7755297161190274e+01  -1.8006095126165619e+01  -1.8252702404364502e+01  -1.8498590657875408e+01  -1.8742157531578613e+01  -1.8981705551127813e+01  -1.9215418777004682e+01  -1.9439105920617102e+01  -1.9657028915131470e+01  -1.9862091604061359e+01  -2.0050433769979399e+01  -2.0213164858811769e+01  -2.0354405975088223e+01  -2.0470874528689425e+01  -2.0569695395789832e+01  -2.0642853362897178e+01  -2.0697453816758056e+01  -2.0737220020519018e+01  -2.0765249270346093e+01  -2.0784411497685248e+01  -2.0796609901102610e+01  -2.0803597253142399e+01  -2.0806671229273700e+01  -2.0807209320802798e+01  -2.0805741714334388e+01  -2.0802882499668055e+01  -2.0799008064554531e+01  -2.0794402398338896e+01  -2.0789296301000061e+01  -2.0783811823838754e+01  -2.0778056199313397e+01  -2.0772117277452566e+01  -2.0766061502302861e+01  -2.0759899553072557e+01  -2.0753679781873480e+01  -2.0747419374241190e+01  -2.0741138078320368e+01  -2.0734841970690649e+01  -2.0728542046853565e+01  -2.0722243874002022e+01  -2.0715952534602405e+01  -2.0709671283364315e+01  -2.0703401738478316e+01  -2.0697147454493226e+01  -2.0690908167976840e+01  -2.0684686471930519e+01  -2.0678481987843238e+01  -2.0672295836036781e+01  -2.0666128560010421e+01  -2.0659980041368463e+01  -2.0653850826828677e+01  -2.0647740996839751e+01  -2.0641650662020503e+01  -2.0635579894143589e+01  -2.0629528725191868e+01  -2.0623497186731512e+01  -2.0617485308281907e+01  -2.0611493187482676e+01  -2.0611494098513738e+01  -2.0611496309880533e+01  -2.0611499713351275e+01  -2.0611503839302692e+01  -2.0611507961034892e+01  -2.0611511377282813e+01  -2.0611513572986329e+01  -2.0611514486385921e+01  -1.8936847444976038e+01  -2.0699576019548648e+01  -2.2209705433186532e+01  -2.1542862872853586e+01  -2.2500178758810943e+01  -2.1289543014192294e+01  -2.1135382701620511e+01  -2.1034231177738981e+01  -2.0963249856103918e+01  -2.0915725751059838e+01  -2.0885782290737012e+01  -2.0862181647181924e+01  -2.0843049110378647e+01  -2.0826468908870261e+01  -2.0811390315639414e+01  -2.0797440095734519e+01  -2.0783392113927150e+01  -1.8334737651933622e+01  -1.7693209396507665e+01  -1.7042271567113353e+01  -1.6374891523569996e+01  -1.5729552734084992e+01  -1.5074040644881624e+01  -2.1653784282397378e+01  -1.9108551953951856e+01  -1.4412009144874093e+01  -1.3732699221482338e+01  -1.2982292107199864e+01  -2.0168011631423866e+01  -1.2216203614699999e+01  -1.1503079855587064e+01  -2.0769495386801552e+01  -1.0702738346463105e+01  -1.8130269850927704e+01  -1.7129710672774532e+01  -9.8608580609685337e+00  -1.6117097433563529e+01  -2.0754686914649913e+01  -1.4864883412028233e+01  -9.0572638780574870e+00  -2.0740393916706420e+01  -1.9359302670508939e+01  -8.1522381906795811e+00  -1.3537379709803025e+01  -1.9757582151070121e+01  -2.0724138031134970e+01  -7.2213904389706380e+00  -1.1955017934978667e+01  -2.0706320919307394e+01  -1.1152775039410397e+01  -6.2742544444722466e+00  -1.0305187419055100e+01  -2.0415556692933734e+01  -5.2847661355618003e+00  -2.0688436806015758e+01  -9.5021995047786945e+00  -2.0676978795285432e+01  -2.0780357787900989e+01  -8.6942966288983374e+00  -4.3192917392152728e+00  -2.0668529994634305e+01  -2.0653722491428979e+01  -1.2757418525982592e+01  -3.5276304841660844e+00  -2.6807736731324359e+00  -2.0807986251355722e+01  -7.8817401755535847e+00  -6.7886744672161390e+00  -2.0801182861918807e+01  -2.1795530115007811e+01  -2.2576668066518366e+01  -2.0786832539899880e+01  -5.9657946023220738e+00  -1.8847788226940760e+00  -2.0763851399585498e+01  -4.8085051073811904e+00  -2.0731871699532689e+01  -3.9432832519871264e+00  -2.0700275029243159e+01  -3.0866513305954939e+00  -2.0681685944597401e+01  -2.0644826362221341e+01  -2.0662909081098896e+01  -2.2210056484505136e+00  -2.0616547688714441e+01  -2.7527101118492225e-01  -2.0637203465889673e+01  -1.9895911328599485e+01  -1.3673131245709162e+00  -9.9946888836036463e-01  -2.0387271168103144e+01  -1.9598660288413726e+01  -2.0125992434217807e+01  -1.8628736298404466e+01  -2.0801817705138841e+01  -2.0775122642800877e+01  -2.0750870535847270e+01  -2.0718365705549225e+01  -1.4314853176208285e+01  -1.5600819256158770e+01  -1.6604998014897387e+01  -1.7631300208958621e+01  -2.0678892033404527e+01  -2.0697593154587040e+01  -7.3492239564441402e+00  -5.3917436812206248e+00  -2.0714813755584686e+01  -4.8312889630164051e+00  -2.0632650973448982e+01  -5.7836190906140104e+00  -6.7488896326093855e+00  -2.0732125418300665e+01  -7.6900310751349679e+00  -2.0616575336109005e+01  -8.6106950506520814e+00  -2.0747310967134066e+01  -9.5033939686186972e+00  -1.0281008007805662e+01  -1.4751264788040787e+01  -1.1113485714939225e+01  -2.0762357014431764e+01  -1.1862380469485322e+01  -1.2610270547499914e+01  -1.3353561134214759e+01  -2.0776551433949102e+01  -1.4056041364860672e+01  -2.3238488514544497e-01  -2.0790322084955918e+01  -2.0804307352128021e+01  -2.0819061307094319e+01  -2.0833975497540187e+01  -2.0852648700978992e+01  -2.0873637923052716e+01  -2.0900519740013831e+01  -2.0942953668773363e+01  -1.8635791590879979e+01  -2.1003348427526806e+01  -2.1090331115337197e+01  -2.1219308064349750e+01  -1.8018702847146198e+01  -2.1416800339524539e+01  -1.6715284171683056e+01  -1.7355291811208328e+01  -1.6077319792909464e+01  -1.5406865047730927e+01  -2.0616157710704051e+01  -2.2172086722454015e+01  -2.7903495349310975e-01  -2.0626164540617694e+01  -7.4667541853106922e-01  -1.9739993671014933e+01  -2.3183265685541435e-01  -2.0616016702912990e+01  -1.9680429610272565e+01  -1.9664405386439032e+01  -1.9583331469667410e+01  -1.9654484249244256e+01  -1.9571554934664629e+01  -1.9647197214075220e+01  -1.9554017348816846e+01  -1.9638396376980438e+01  -1.9536955057980670e+01  -1.9625038460128149e+01  -1.9513858729467216e+01  -1.9607764407306806e+01  -1.9483142377283109e+01  -1.9580802458354437e+01  -1.9444809711053509e+01  -1.9543028930425656e+01  -1.9396139663599964e+01  -1.9496895353297326e+01  -1.9342425933409729e+01  -1.9438955235101265e+01  -1.9277977888703479e+01  -1.9612744800549549e+01  -1.9170193659300310e+01  -1.9108563040470472e+01  -1.9540542484554628e+01  -1.9725857699759413e+01  -1.8997025346482499e+01  -1.8929892920965365e+01  -1.8833103345632708e+01  -1.8754049020364530e+01  -1.8655907395993356e+01  -1.8578552777114357e+01  -1.8480082735326011e+01  -1.8407992635862072e+01  -1.8302365215979531e+01  -1.8232679111225114e+01  -1.8120067092503476e+01  -1.8034086420739712e+01  -1.7931248377902229e+01  -1.7848523310245287e+01  -1.7740572071081985e+01  -1.7645250650322680e+01  -1.7543038337407914e+01  -1.7454373248443716e+01  -1.7344657783550375e+01  -1.7255487275530975e+01  -1.7141982323787850e+01  -1.7057805713081773e+01  -1.6938134405359708e+01  -1.6853260843092041e+01  -1.6734326812015894e+01  -1.9637479462408066e+01  -1.9817013688479374e+01  -1.6644504233547330e+01  -1.6515567748513060e+01  -1.6437048147005950e+01  -1.6311412071493400e+01  -1.6234635258105627e+01  -1.6114952341956595e+01  -1.6030277160849973e+01  -1.5912581090187254e+01  -1.5825416426090511e+01  -1.5708239330361652e+01  -1.9037455528916453e+01  -1.5620241643952195e+01  -1.5502675008650277e+01  -1.5414128156472094e+01  -1.5296545902504487e+01  -1.5207477133074946e+01  -1.5089743709673321e+01  -1.9728471170646266e+01  -1.9904974946812857e+01  -1.9717700979970466e+01  -1.4998741904771261e+01  -1.4880090503840565e+01  -1.9921213679663214e+01  -1.4787544414696626e+01  -1.4668690276841769e+01  -1.4575436386908594e+01  -1.4455963378082100e+01  -1.4361618773523363e+01  -1.4240340357177462e+01  -1.8524108244292687e+01  -1.4147568529238518e+01  -1.4023490535449239e+01  -1.3929968393039978e+01  -1.3804782442775833e+01  -1.3711812684822734e+01  -1.3584683746020129e+01  -1.9348233708070346e+01  -1.7951426667749555e+01  -1.3492541591540869e+01  -1.3363982653926728e+01  -1.9811473556351704e+01  -2.0006681116759047e+01  -1.9634498574298956e+01  -1.7363928260984476e+01  -1.3273565677693261e+01  -1.3137750743226615e+01  -1.3051388590304407e+01  -1.2911283991732081e+01  -1.2827382755487374e+01  -1.2689848641508171e+01  -1.4971036679595162e+01  -1.3223086632547274e+01  -1.4336243239695568e+01  -1.5591796322540864e+01  -1.2603051441423277e+01  -1.2467445358826701e+01  -1.2555483871401375e+01  -1.2336055646589051e+01  -1.2243727177121702e+01  -1.2117173885921142e+01  -1.2018842398876060e+01  -1.1892305490258947e+01  -1.1791742938729669e+01  -1.1663232374864922e+01  -1.1563142452022364e+01  -1.1435493623932357e+01  -1.1333108859126995e+01  -1.1206910778698914e+01  -1.1102460563421072e+01  -1.0976842732183831e+01  -1.0869435777362192e+01  -1.0745325025335063e+01  -1.0635494984753397e+01  -1.0511202876704523e+01  -1.0400164700267498e+01  -1.0276526489698579e+01  -1.0163740208631230e+01  -1.0039556622460786e+01  -1.6194078796679221e+01  -1.6758975773103728e+01  -9.9256559384598191e+00  -9.8020100828324406e+00  -9.6860084054496554e+00  -9.5610028177931419e+00  -1.8557311538701544e+01  -9.4422096908707758e+00  -9.3184972267879456e+00  -1.7234403970863788e+01  -1.7827722084918545e+01  -1.9882165667290966e+01  -2.0042541358778443e+01  -2.0190951767104298e+01  -2.0233991430027771e+01  -2.0370782089731104e+01  -2.0400254471608640e+01  -2.0536298339625514e+01  -2.0545229783078948e+01  -2.0686597130105532e+01  -2.0667570092092472e+01  -2.0812234536482240e+01  -2.0762841291833428e+01  -2.0908810688421077e+01  -2.0844601634155023e+01  -2.0996724543084390e+01  -2.0914764006596574e+01  -2.1022724732745637e+01  -2.0939080857752636e+01  -2.1039911949369380e+01  -2.0973997898456904e+01  -2.1046385404008749e+01  -2.0983332842059323e+01  -2.1041502118169632e+01  -2.0984137989478821e+01  -2.1030052897626010e+01  -2.0979406774423168e+01  -2.1016073541411057e+01  -2.0972069768101548e+01  -2.0918132229123565e+01  -2.0935547025751614e+01  -2.0933117099684530e+01  -2.0962593685615403e+01  -2.0928717417884705e+01  -2.0951933831493115e+01  -2.0922815841828033e+01  -2.0941059284893313e+01  -2.0916092917555790e+01  -2.0900355960387703e+01  -2.0934415929123173e+01  -2.0909096253797980e+01  -2.0920605332248662e+01  -2.0901154844040942e+01  -2.0888715991865837e+01  -2.0883711435023695e+01  -2.0893540910934803e+01  -2.0878474666965229e+01  -2.0885578877194877e+01  -2.0872855270964084e+01  -2.0505918259314218e+01  -2.0877959889971017e+01  -2.0867245232385521e+01  -2.0860728055809147e+01  -2.0856671960389392e+01  -2.0861841446788659e+01  -2.0852399939137332e+01  -2.0856404133564432e+01  -2.0847916859716261e+01  -2.1059529667874777e+01  -2.0810493615995178e+01  -2.0848318755528325e+01  -2.1119575391903666e+01  -2.0851521959607165e+01  -2.0843407913654513e+01  -2.0840058520531755e+01  -2.0836208672274530e+01  -2.0838785752149072e+01  -2.0832230014431360e+01  -2.0834108960541418e+01  -2.0828097364235099e+01  -2.0826153004707713e+01  -2.0822556276499292e+01  -2.0823853072173168e+01  -2.0818715273863866e+01  -2.0871161535791185e+01  -2.0819532271923485e+01  -2.0814775425960267e+01  -2.1110298156429526e+01  -2.0526036732024316e+01  -2.0850004038668207e+01  -2.1066717504969247e+01  -2.0815258511768860e+01  -2.0810648574568102e+01  -2.0810429279430871e+01  -2.0806251032533286e+01  -2.0806586140447795e+01  -2.0802206622852854e+01  -2.0801896480416925e+01  -2.0798003522188594e+01  -2.0798107246950575e+01  -2.0794035254365806e+01  -2.0969691848977224e+01  -2.0793978359708529e+01  -2.0789941087255027e+01  -2.0820538059827534e+01  -2.0897430370926450e+01  -1.6148252073486539e+01  -2.0940901907110998e+01  -2.0790040459465640e+01  -2.0786008236357365e+01  -2.0785796060248924e+01  -2.0781929750395832e+01  -9.1990053455732195e+00  -9.0758188328392517e+00  -8.9572427742847971e+00  -8.8296407429408923e+00  -8.7117798608131434e+00  -8.5817260184910857e+00  -2.0781460957388049e+01  -2.0777699939506753e+01  -1.5115846115785439e+01  -2.0778076085871149e+01  -2.0773914637199475e+01  -2.0773597291548256e+01  -2.0769749285783789e+01  -1.9730991130921556e+01  -2.0147391210702963e+01  -2.0865818648077397e+01  -1.1309541323396594e+01  -8.4646400359960356e+00  -8.3345505010829282e+00  -1.2428315022550672e+01  -1.0157794766534192e+01  -8.4512088421046894e+00  -8.2040569477042684e+00  -8.0872066400767064e+00  -7.9548899288963320e+00  -7.8394904866300053e+00  -7.7041629329481678e+00  -7.5913574583981287e+00  -7.4565336365544210e+00  -7.3431161682484607e+00  -7.2055533558656002e+00  -7.0936920308055225e+00  -6.9503281411589777e+00  -6.8425238949841072e+00  -6.6961763022931624e+00  -6.5889314170222644e+00  -6.4406919486639591e+00  -6.335467554861094