<?xml version="1.0"?>
<VTKFile type="UnstructuredGrid"  version="0.1"  >
<UnstructuredGrid>
<Piece  NumberOfPoints="2945" NumberOfCells="5525">
<Points>
<DataArray  type="Float64"  NumberOfComponents="3"  format="ascii">0 0.1 0  0.95 0.1 0  1 0.1 0  1 0 0  1.5 0 0  3 0 0  3 0.3 0  0 0.3 0  0.0197424558707114 0.1 0  0.03915669042224804 0.1 0  0.05824816022699029 0.1 0  0.07702223050332387 0.1 0  0.09548417327144595 0.1 0  0.1136391897583987 0.1 0  0.1314923700144587 0.1 0  0.1490487330862866 0.1 0  0.1663132263225292 0.1 0  0.1832906857273058 0.1 0  0.1999858946008978 0.1 0  0.216403545770297 0.1 0  0.2325482404045023 0.1 0  0.2484245348165176 0.1 0  0.2640368740372501 0.1 0  0.2793896589642241 0.1 0  0.2944872056237027 0.1 0  0.3093337469555254 0.1 0  0.3239334613687816 0.1 0  0.3382904528528069 0.1 0  0.3524087553122972 0.1 0  0.3662923366391824 0.1 0  0.3799451014768399 0.1 0  0.393370886920506 0.1 0  0.4065734648871676 0.1 0  0.419556546320114 0.1 0  0.4323237821343415 0.1 0  0.4448787573056132 0.1 0  0.4572250047274954 0.1 0  0.4693659926332938 0.1 0  0.4813051343276231 0.1 0  0.4930457849308193 0.1 0  0.5045912455271677 0.1 0  0.5159447600209797 0.1 0  0.5271095174127136 0.1 0  0.5380886618453393 0.1 0  0.5488852725463512 0.1 0  0.5595023868312478 0.1 0  0.5699429904313016 0.1 0  0.5802100167387366 0.1 0  0.5903063508274641 0.1 0  0.6002348329443006 0.1 0  0.6099982499579832 0.1 0  0.6195993483501782 0.1 0  0.6290408246013842 0.1 0  0.6383253354321616 0.1 0  0.6474554910757137 0.1 0  0.6564338522440513 0.1 0  0.6652629482939147 0.1 0  0.6739452579188948 0.1 0  0.6824832240165607 0.1 0  0.6908792415022103 0.1 0  0.6991356755989045 0.1 0  0.7072548438546967 0.1 0  0.7152390281534421 0.1 0  0.7230904746196039 0.1 0  0.7308113906759266 0.1 0  0.7384039435269326 0.1 0  0.7458702676581656 0.1 0  0.7532124631720397 0.1 0  0.7604325921167397 0.1 0  0.7675326856666862 0.1 0  0.7745147374421916 0.1 0  0.7813807123989068 0.1 0  0.7881325374362798 0.1 0  0.7947721131625659 0.1 0  0.8013013031866276 0.1 0  0.8077219449067021 0.1 0  0.8140358419942376 0.1 0  0.8202447685401882 0.1 0  0.8263504700910924 0.1 0  0.8323546643163114 0.1 0  0.8382590362474568 0.1 0  0.8440652473522128 0.1 0  0.8497749272799842 0.1 0  0.8553896837646281 0.1 0  0.8609110933285474 0.1 0  0.866340708855119 0.1 0  0.8716800550492284 0.1 0  0.8769306339052932 0.1 0  0.8820939206038667 0.1 0  0.8871713655604893 0.1 0  0.8921643975475726 0.1 0  0.8970744196575535 0.1 0  0.9019028106970642 0.1 0  0.9066509291259979 0.1 0  0.9113201098984042 0.1 0  0.9159116634553873 0.1 0  0.9204268818729691 0.1 0  0.9248670319440222 0.1 0  0.9292333656649013 0.1 0  0.9335271075812669 0.1 0  0.9377494640511216 0.1 0  0.941901623463222 0.1 0  0.9459847526686701 0.1 0  0.9538461538461205 0.1 0  0.9576923076922409 0.1 0  0.9615384615384381 0.1 0  0.9653846153846337 0.1 0  0.9692307692307542 0.1 0  0.9730769230768747 0.1 0  0.9769230769229952 0.1 0  0.9807692307691157 0.1 0  0.9846153846152361 0.1 0  0.9884615384614317 0.1 0  0.9923076923076356 0.1 0  0.9961538461538395 0.1 0  1 0.09591793123533533 0  1 0.09133596463859224 0  1 0.08619288104391448 0  1 0.08041996484521211 0  1 0.07394008421771697 0  1 0.06666666567302955 0  1 0.05850252932209174 0  1 0.04933859630113544 0  1 0.03905242821848202 0  1 0.02750659386753798 0  1 0.01454683679239736 0  1.015625 0 0  1.03125 0 0  1.046875 0 0  1.0625 0 0  1.078125 0 0  1.09375 0 0  1.109375 0 0  1.125 0 0  1.140625 0 0  1.15625 0 0  1.171875 0 0  1.1875 0 0  1.203125 0 0  1.21875 0 0  1.234375 0 0  1.25 0 0  1.265625 0 0  1.28125 0 0  1.296875 0 0  1.3125 0 0  1.328125 0 0  1.34375 0 0  1.359375 0 0  1.375 0 0  1.390625 0 0  1.40625 0 0  1.421875 0 0  1.4375 0 0  1.453125 0 0  1.46875 0 0  1.484375 0 0  1.515920751924515 0 0  1.531989369316721 0 0  1.54820720925872 0 0  1.564575665560501 0 0  1.581096138674279 0 0  1.597770029901263 0 0  1.614598783332311 0 0  1.631583831055205 0 0  1.64872661129721 0 0  1.666028606716533 0 0  1.683491276608443 0 0  1.701116134125304 0 0  1.718904673324128 0 0  1.736858414799339 0 0  1.754978895814663 0 0  1.773267661782904 0 0  1.791726281103402 0 0  1.810356325314689 0 0  1.8291593848892 0 0  1.848137076690385 0 0  1.867291007717254 0 0  1.886622833871288 0 0  1.90613418642363 0 0  1.925826753299799 0 0  1.945702199101513 0 0  1.96576223584749 0 0  1.986008569283268 0 0  2.006442931928877 0 0  2.02706707547783 0 0  2.047882750887917 0 0  2.06889175187935 0 0  2.090095860038271 0 0  2.111496891648636 0 0  2.133096679109554 0 0  2.154897066851056 0 0  2.176899916687499 0 0  2.199107102752146 0 0  2.22152053937028 0 0  2.244142122958061 0 0  2.266973806444078 0 0  2.290017523268154 0 0  2.313275249499252 0 0  2.336748971745516 0 0  2.360440702338606 0 0  2.384352453384031 0 0  2.408486280477412 0 0  2.432844240041185 0 0  2.457428414757088 0 0  2.482240901796653 0 0  2.507283830121838 0 0  2.532559332080812 0 0  2.558069568787417 0 0  2.583816724966441 0 0  2.60980299606584 0 0  2.636030600971886 0 0  2.662501790984011 0 0  2.689218818279327 0 0  2.716183964547616 0 0  2.743399548861297 0 0  2.77086788244719 0 0  2.798591312896326 0 0  2.826572223178268 0 0  2.854812990138617 0 0  2.883316031690714 0 0  2.912083780657189 0 0  2.941118704633482 0 0  2.970423276998917 0 0  3 0.02999999999994495 0  3 0.05999999999987042 0  3 0.089999999999783 0  3 0.119999999999701 0  3 0.149999999999619 0  3 0.179999999999692 0  3 0.2099999999997737 0  3 0.2399999999998511 0  3 0.2699999999999185 0  2.970138294777171 0.3 0  2.940375666438236 0.3 0  2.910711782853056 0.3 0  2.881146331305122 0.3 0  2.851678975030285 0.3 0  2.822309388626621 0.3 0  2.793037250095074 0.3 0  2.76386223529133 0.3 0  2.734784017903872 0.3 0  2.705802289276642 0.3 0  2.676916713794697 0.3 0  2.648126987654635 0.3 0  2.619432780406184 0.3 0  2.590833779385199 0.3 0  2.562329669847737 0.3 0  2.533920134950189 0.3 0  2.505604855727852 0.3 0  2.477383539822502 0.3 0  2.449255847639465 0.3 0  2.421221492569094 0.3 0  2.393280152486815 0.3 0  2.36543151914496 0.3 0  2.337675285481809 0.3 0  2.310011142385583 0.3 0  2.282438797441587 0.3 0  2.254957931061538 0.3 0  2.227568248063605 0.3 0  2.200269436651085 0.3 0  2.173061204949961 0.3 0  2.145943251515011 0.3 0  2.118915272469994 0.3 0  2.091976978084957 0.3 0  2.065128060700849 0.3 0  2.038368218849433 0.3 0  2.01169717777258 0.3 0  1.985114624111908 0.3 0  1.958620267850966 0.3 0  1.93221382054972 0.3 0  1.905894991850698 0.3 0  1.879663489459713 0.3 0  1.853519019126419 0.3 0  1.827461291053897 0.3 0  1.801490031354372 0.3 0  1.775604937580312 0.3 0  1.74980572560258 0.3 0  1.724092118631866 0.3 0  1.698463829173586 0.3 0  1.672920575782554 0.3 0  1.647462076974085 0.3 0  1.622088043536933 0.3 0  1.5967981978949 0.3 0  1.571592267767068 0.3 0  1.546469970305736 0.3 0  1.521431023814044 0.3 0  1.496475156230927 0.3 0  1.471602093687753 0.3 0  1.446811560490646 0.3 0  1.422103279101731 0.3 0  1.397476971708191 0.3 0  1.37293238939876 0.3 0  1.348469231419202 0.3 0  1.324087248732772 0.3 0  1.299786165921677 0.3 0  1.275565710847046 0.3 0  1.251425617644257 0.3 0  1.227365618676339 0.3 0  1.203385446174014 0.3 0  1.179484853067473 0.3 0  1.155663548773374 0.3 0  1.131921292279077 0.3 0  1.108257802159295 0.3 0  1.084672829009693 0.3 0  1.061166115303374 0.3 0  1.037737392995421 0.3 0  1.01438640299116 0.3 0  0.991112899770314 0.3 0  0.9679166155523955 0.3 0  0.944797284182564 0.3 0  0.921754678526042 0.3 0  0.8987885143602501 0.3 0  0.8758985548820624 0.3 0  0.8530845484099929 0.3 0  0.8303462351786988 0.3 0  0.8076833651172373 0.3 0  0.7850956864865304 0.3 0  0.7625829601354557 0.3 0  0.7401449314598274 0.3 0  0.717781337993959 0.3 0  0.6954919649675473 0.3 0  0.6732765357561226 0.3 0  0.6511348120768439 0.3 0  0.6290665642016573 0.3 0  0.6070715355430467 0.3 0  0.5851494825775325 0.3 0  0.5633001690203812 0.3 0  0.5415233562273221 0.3 0  0.5198187909431873 0.3 0  0.4981862401387795 0.3 0  0.4766254686134248 0.3 0  0.4551362360485234 0.3 0  0.4337182975262159 0.3 0  0.4123714223228037 0.3 0  0.3910953802377493 0.3 0  0.3698899313205595 0.3 0  0.3487548463710963 0.3 0  0.3276898864081783 0.3 0  0.3066948129116018 0.3 0  0.2857694003037476 0.3 0  0.2649134227095047 0.3 0  0.2441266417321288 0.3 0  0.2234088223399122 0.3 0  0.2027597568977288 0.3 0  0.1821792020676698 0.3 0  0.1616669305402443 0.3 0  0.1412227158799362 0.3 0  0.12084633013886 0.3 0  0.1005375673448281 0.3 0  0.08029618164595353 0.3 0  0.06012194778526769 0.3 0  0.04001466495039718 0.3 0  0.01997408913631205 0.3 0  0 0.2800000000000553 0  0 0.2600000000001105 0  0 0.2400000000001658 0  0 0.2200000000002211 0  0 0.2000000000002764 0  0 0.1800000000002244 0  0 0.1600000000001691 0  0 0.140000000000115 0  0 0.1200000000000564 0  1.133778471000506 0.01219539743990768 0  1.003741919047894 0.09354664821474232 0  0.9559421147150347 0.1035858189992458 0  0.9313792160389045 0.1037365237938103 0  0.9788461538460573 0.1033060829993555 0  0.9090102438250753 0.1037269304984056 0  0.8846304212778655 0.1043349840723655 0  0.8581503885465881 0.104741932962923 0  0.8286416220145676 0.1052762843984476 0  0.7982741772533339 0.1053575624517407 0  0.7708789559342691 0.1060290465840416 0  0.741870349714261 0.1078220590984258 0  0.7112469360040695 0.10685702926368 0  0.6783901541417233 0.1079959711853378 0  0.642884733623195 0.1075561996086514 0  0.6056235042367955 0.1085956039602543 0  0.5647007593786924 0.1083187281660325 0  1.1953125 0.01353164693413185 0  1.258148737344733 0.01268350115427042 0  1.320087046516829 0.01426312402966312 0  1.383495130751951 0.01432665475473204 0  1.4453125 0.01315663539200989 0  1.50886768312388 0.01395488397722681 0  0.9942307692307371 0.103330866937657 0  1.119309781943483 0.2802014914557878 0  1.572831235329714 0.01707210522554785 0  1.637611634353954 0.01209340368483431 0  1.709661292005932 0.0146870244871893 0  1.006561890631532 0.07068055446055937 0  1.784793444007901 0.01499371444634687 0  1.855459587353174 0.0
[...]
<PointData  Scalars="pressure"> 
<DataArray  type="Float64"  Name="pressure"  format="ascii">5.6463828651185788e-01  -1.8442510632505879e-01  2.8508518255943172e-01  4.6273139117394163e-01  3.8426363888345122e-01  0.0000000000000000e+00  0.0000000000000000e+00  5.6474628594805920e-01  5.5871566142199869e-01  5.5289037136439179e-01  5.4716046112779571e-01  5.4152417817767784e-01  5.3597958218278918e-01  5.3052517861681059e-01  5.2515910502043461e-01  5.1987953976024903e-01  5.1468513099994806e-01  5.0957351981356680e-01  5.0454316094779261e-01  4.9959258183603461e-01  4.9471957582114173e-01  4.8992263064043906e-01  4.8519953689279921e-01  4.8054871748078276e-01  4.7596777088022385e-01  4.7145525213693479e-01  4.6700859364990371e-01  4.6262631460445025e-01  4.5830525320759724e-01  4.5404403649148467e-01  4.4984164468964338e-01  4.4569305813738597e-01  4.4159749493766698e-01  4.3755185805739172e-01  4.3355465749468242e-01  4.2960182843544042e-01  4.2569196514033808e-01  4.2182102596299054e-01  4.1798752230298186e-01  4.1418893972873910e-01  4.1041942573160978e-01  4.0667762771176535e-01  4.0296091694538383e-01  3.9926535139345060e-01  3.9558656406978698e-01  3.9192253430533108e-01  3.8826835203051968e-01  3.8462134013545757e-01  3.8097601212890880e-01  3.7732913798327228e-01  3.7367695256993433e-01  3.7001498687865514e-01  3.6633770041770009e-01  3.6264224628358965e-01  3.5892169433237459e-01  3.5517267855838436e-01  3.5138989078573990e-01  3.4756434877621800e-01  3.4369782105867452e-01  3.3977529408435631e-01  3.3579608923840770e-01  3.3175746323998651e-01  3.2764660617410096e-01  3.2345717866138385e-01  3.1918569903801647e-01  3.1481141480133557e-01  3.1034723600921699e-01  3.0577564709265498e-01  3.0107908175993969e-01  2.9625752311145742e-01  2.9128924248867938e-01  2.8618258586897333e-01  2.8091756407645246e-01  2.7546970623292716e-01  2.6983698210409585e-01  2.6400165366466022e-01  2.5794758655680206e-01  2.5165564307444271e-01  2.4511119657100636e-01  2.3828707192086609e-01  2.3117343370466409e-01  2.2373720530519972e-01  2.1593964115097580e-01  2.0775900933684455e-01  1.9916445817945638e-01  1.9010161676645851e-01  1.8053649311266126e-01  1.7042004365231783e-01  1.5968934410601318e-01  1.4823011425905466e-01  1.3601480970514024e-01  1.2292051599880432e-01  1.0884081180007361e-01  9.3577984334050859e-02  7.6985233177098294e-02  5.8852454525698032e-02  3.8704606180197026e-02  1.6262129127357802e-02  -9.0023598056676677e-03  -3.8047785873058682e-02  -7.1924704130700109e-02  -1.1201900841704977e-01  -1.7065307864118584e-01  -3.9664883098886489e-01  -4.8697494563815957e-01  -4.5629803650050349e-01  -3.6760346747985728e-01  -2.4284700193821401e-01  -1.0940178506952945e-01  3.0848954819906474e-02  1.6302162577819740e-01  2.9155224381820832e-01  4.0439681187796117e-01  4.8649401814918009e-01  5.9020865581010651e-01  2.3101558239846984e-01  3.6026914236988200e-01  3.9094735513406997e-01  4.1384115026980506e-01  4.2793421257235870e-01  4.3815842212246597e-01  4.4647815124722201e-01  4.5352623459587765e-01  4.5948085463332561e-01  4.6342411161592717e-01  4.6395894098678397e-01  4.6124090972015164e-01  4.6175225630238764e-01  4.6547897420280815e-01  4.7295230513670145e-01  4.8476869655702637e-01  5.0089832212755436e-01  5.2053347478702161e-01  5.4219977087027604e-01  5.6329592566726361e-01  5.8151455591602985e-01  5.9515128894669478e-01  6.0321698021981407e-01  6.0565587823452915e-01  6.0299436720205790e-01  5.9613884702612840e-01  5.8599133785115143e-01  5.7371566921654482e-01  5.6012275934334899e-01  5.4601230642202958e-01  5.3187598010574366e-01  5.1785472005169864e-01  5.0443757932533895e-01  4.9129814854735365e-01  4.7854964610400463e-01  4.6591588188410804e-01  4.5326485021401869e-01  4.4012236128787130e-01  4.2695623494002377e-01  4.1390209467042760e-01  4.0179822962426603e-01  3.9159182699933359e-01  3.8056627145488731e-01  3.8097322504622644e-01  3.8524930560117926e-01  3.9258418434618730e-01  4.0181451939267565e-01  4.1108931376462937e-01  4.1950307025586608e-01  4.2555618516057703e-01  4.2880923037572510e-01  4.2893487663180080e-01  4.2611739203596138e-01  4.2080380396584410e-01  4.1346630238084947e-01  4.0470662385122874e-01  3.9494062294448951e-01  3.8453637251871842e-01  3.7380016470095440e-01  3.6291664758164671e-01  3.5172055266475527e-01  3.4073233902012851e-01  3.2934803654700945e-01  3.1757956156546163e-01  3.0515696186894387e-01  2.9180990535504026e-01  2.7778726220939132e-01  2.6323036968907998e-01  2.4942677895020479e-01  2.3695371229700890e-01  2.2717753135705512e-01  2.2127845246511663e-01  2.1972495330049119e-01  2.2252178480025203e-01  2.2903552432813895e-01  2.3804934987789730e-01  2.4816004420452809e-01  2.5775904875349187e-01  2.6561845979952764e-01  2.7082430225921178e-01  2.7295274666408215e-01  2.7195821687224586e-01  2.6807708674099329e-01  2.6171517022813701e-01  2.5332750611639032e-01  2.4337466078384370e-01  2.3226521839877812e-01  2.2039985319476363e-01  2.0800102055659320e-01  1.9522882930256069e-01  1.8212932497126785e-01  1.6827035312599881e-01  1.5303353576164683e-01  1.3671196808721123e-01  1.1859086692661092e-01  1.0033556312521351e-01  8.3132089784122135e-02  6.7966533673428961e-02  5.7356995328485393e-02  5.1444024374157030e-02  5.0236069168956489e-02  5.2661743124145732e-02  5.6750379059603083e-02  6.0436375953057245e-02  6.1170543243156170e-02  5.8044054903350510e-02  4.9614378381234274e-02  3.7196753678046271e-02  1.9845569850032128e-02  0.0000000000000000e+00  0.0000000000000000e+00  0.0000000000000000e+00  0.0000000000000000e+00  0.0000000000000000e+00  0.0000000000000000e+00  0.0000000000000000e+00  0.0000000000000000e+00  0.0000000000000000e+00  2.0923859873452390e-03  6.8633188545083584e-03  1.5723829122589936e-02  2.7872040277465038e-02  4.2614569901224093e-02  5.8718103127813809e-02  7.5309345784703316e-02  9.1796917821418314e-02  1.0780795480810129e-01  1.2298529355404401e-01  1.3679800258778349e-01  1.4854472958633111e-01  1.5748384172113494e-01  1.6309030267362234e-01  1.6529060321104519e-01  1.6461798701288585e-01  1.6226186738952830e-01  1.5989284355781030e-01  1.5931519652961834e-01  1.6209608130795014e-01  1.6912791451188419e-01  1.8037239448345829e-01  1.9485904699212142e-01  2.1104174733360728e-01  2.2756275144949928e-01  2.4332719563569274e-01  2.5807890880174300e-01  2.7220842329486605e-01  2.8619784542098609e-01  3.0047794807043743e-01  3.1503775239164017e-01  3.2926962670034537e-01  3.4231612138690093e-01  3.5268287566717788e-01  3.5808799749427100e-01  3.5819757894393084e-01  3.5136231864312728e-01  3.3852246723400309e-01  3.2134006316941677e-01  3.0227498920200302e-01  2.8533549071250969e-01  2.7312338307119177e-01  2.6819422543285715e-01  2.7192999336689699e-01  2.8440165896473518e-01  3.0440929724348781e-01  3.2944678874702532e-01  3.5685350913505837e-01  3.8416614302454694e-01  4.0892201859442268e-01  4.2980770010035102e-01  4.4597568467459064e-01  4.5719273969054858e-01  4.6288286050354271e-01  4.6241579580802694e-01  4.5597886222898432e-01  4.4398477970763273e-01  4.2754066101312566e-01  4.0823408718719084e-01  3.8823063261701413e-01  3.6977196694837489e-01  3.5511562604791802e-01  3.4553701539205350e-01  3.4159274350063351e-01  3.4293396625443612e-01  3.4834130586598422e-01  3.5646660634246763e-01  3.6550129402719411e-01  3.7423378987812894e-01  3.8174331689341506e-01  3.8751446264052392e-01  3.9159629481486291e-01  3.9400270475583177e-01  3.9497238000654000e-01  3.9454219939948332e-01  3.9287456524807213e-01  3.8997200240862301e-01  3.8624812162833216e-01  3.8184655131476930e-01  3.7735828487030626e-01  3.7333136538435757e-01  3.6999104374159808e-01  3.6748147847726037e-01  3.6592544448764375e-01  3.6548722135633555e-01  3.6609230144936300e-01  3.6756205367138650e-01  3.6981868584452848e-01  3.7288532841703553e-01  3.7648558671014831e-01  3.8063171547893748e-01  3.8517588522690166e-01  3.9006408673793014e-01  3.9525309783621643e-01  4.0068346368955615e-01  4.0628731798194545e-01  4.1204331814578532e-01  4.1792479497057344e-01  4.2389884163538449e-01  4.2993741989788514e-01  4.3602637633714791e-01  4.4216433719812592e-01  4.4832711876253495e-01  4.5451085934770774e-01  4.6070474136125350e-01  4.6690627189124606e-01  4.7311039125245397e-01  4.7930783904410201e-01  4.8550311719842087e-01  4.9168636534530674e-01  4.9786049629285306e-01  5.0402199958609706e-01  5.1016861984893358e-01  5.1630127401086345e-01  5.2241771311089602e-01  5.2851764364400844e-01  5.3460053915196937e-01  5.4066593484579661e-01  5.4671353627247365e-01  5.5274303508785871e-01  5.5875405652426846e-01  5.6474599024205352e-01  5.6474156548119236e-01  5.6473048766063338e-01  5.6471327047093567e-01  5.6469231054623936e-01  5.6467138375422365e-01  5.6465410289313500e-01  5.6464310943531482e-01  5.6463866610983804e-01  5.5194956382451721e-01  3.5074604009047172e-01  -4.3928684189804912e-01  -2.8792644160165595e-02  1.2364113887159145e-01  8.2784909170213930e-02  1.5239515068200257e-01  2.0240266741579785e-01  2.4174153306035415e-01  2.7192323772864330e-01  2.9346084571060432e-01  3.1236950878536923e-01  3.2945949242463551e-01  3.4535589134735112e-01  3.6065571929194201e-01  3.7521729637646684e-01  3.9004242638724440e-01  6.0222059783137072e-01  5.7853317058347353e-01  5.2507325254853343e-01  4.7264229999598284e-01  4.2167136769412794e-01  3.8160255816724670e-01  5.0009230217373013e-01  3.8580657222990111e-01  3.9477348817361962e-01  4.2583198954518009e-01  4.1803722251545100e-01  4.3249596246398569e-01  3.7924485635327615e-01  3.3724898877592946e-01  4.0465772905237529e-01  2.8603817520023311e-01  3.5334219587949056e-01  3.4834436163892790e-01  2.3086063563124526e-01  4.1648975612448974e-01  4.2009687843730598e-01  4.6100295685703035e-01  2.2394396880896908e-01  4.3484605722524305e-01  4.9277635521611662e-01  2.6064789284362805e-01  3.7277534137651464e-01  3.9531254538477495e-01  4.5146094934818476e-01  2.6987994109139946e-01  2.6766045549692125e-01  4.6952519399946774e-01  3.0807674828891973e-01  2.3834965683441020e-01  3.5443828163158764e-01  3.9054236688841276e-01  1.8765270181071331e-01  4.8755722292296727e-01  3.4733983833431814e-01  3.7709463998936738e-01  3.6737686963498661e-01  3.0763232723360201e-01  1.2943170359589759e-01  5.0755563118265146e-01  5.2240025331828377e-01  2.9433691792078748e-01  7.5434199315289621e-02  4.8898193827484268e-02  3.6892944448503012e-01  2.6518659660520727e-01  2.0260220515929717e-01  3.7888258550364540e-01  -1.4625723391187709e-01  -2.8463981930446303e-01  3.9261265855345767e-01  1.6423476937955403e-01  5.7130468921500997e-02  4.1422650466087069e-01  1.6198479835940519e-01  4.4508802483280452e-01  1.6036714291932380e-01  4.7621421022629445e-01  1.3102683220736308e-01  4.9467553349638949e-01  5.3142946002553348e-01  5.1338140294671275e-01  8.4540168822417314e-02  5.5963976888873157e-01  1.9399569484725510e-03  5.3894107745126840e-01  4.5573230636374268e-01  3.6899674944695107e-02  5.3712605498087783e-02  4.0744223063031809e-01  4.6972196079769762e-01  3.9555362106713099e-01  3.7131631676250038e-01  3.6629460649205747e-01  4.0358409444253218e-01  4.2665041877516718e-01  4.5834024448731353e-01  4.3918196244226354e-01  4.4934709409128160e-01  3.7862852911423173e-01  3.4189022492074489e-01  4.9715322410229595e-01  4.7833501580488730e-01  2.3639951656033692e-01  1.5772449466138719e-01  4.6092971025931723e-01  1.6242867696534988e-01  5.4359347742105502e-01  2.1404128423947824e-01  2.5777641410580865e-01  4.4331688397073571e-01  2.7131480065368946e-01  5.5964564189499599e-01  2.4140861582231776e-01  4.2772664770179009e-01  2.2024826671591960e-01  2.5577167650394100e-01  3.8156148201407247e-01  3.1356611838123744e-01  4.1212582674961895e-01  3.5854824706387795e-01  4.0113795996355950e-01  4.2772570570105040e-01  3.9724843671736187e-01  4.1409489227838459e-01  1.3243330133166566e-02  3.8272527603641260e-01  3.6802353310169772e-01  3.5280128442719777e-01  3.3803480317095219e-01  3.2075702910334081e-01  3.0307692775740408e-01  2.8257105657409159e-01  2.5417908448691390e-01  5.8667054205892988e-01  2.1896483493256885e-01  1.7377150550639642e-01  1.1376401573495679e-01  5.9780436687102423e-01  2.7389330465297016e-02  4.9878412297114644e-01  5.5135618038603562e-01  4.4982843944472845e-01  3.9734188901894679e-01  5.6000274260995087e-01  3.6729676163564823e-01  -2.0654218418183511e-03  5.4998647078826468e-01  1.0043353746749058e-02  4.6296610468714638e-01  1.7325324316429497e-02  5.6022129118715380e-01  4.6503450920734579e-01  4.6540754151460445e-01  4.6976391535249645e-01  4.6312445746028114e-01  4.6792128364071528e-01  4.6120984750429583e-01  4.6790590672098992e-01  4.6172351584080640e-01  4.7029068575170041e-01  4.6488455937447548e-01  4.7455666474154912e-01  4.6789799256425352e-01  4.7774393419172440e-01  4.6779426176841893e-01  4.7667112695088992e-01  4.6368090528947015e-01  4.7075813946539163e-01  4.5538875094079678e-01  4.6022913794467862e-01  4.4376415462453295e-01  4.4623692239090118e-01  4.3872850889692883e-01  4.6768120763192228e-01  4.4734471382981178e-01  4.2873599509042343e-01  4.2379300200261999e-01  4.6895818520255311e-01  4.4602232666587949e-01  4.7004672409766252e-01  4.4239865737480899e-01  4.6919219351264579e-01  4.3745451420606185e-01  4.6579773676319236e-01  4.3121904880492590e-01  4.6005190951745822e-01  4.1616858376487892e-01  4.4965815922362246e-01  4.1149402355899495e-01  4.4154788521498350e-01  4.0354452336212093e-01  4.3331663252144892e-01  3.9073647303601772e-01  4.2509479613231149e-01  3.9105401233878423e-01  4.2052597295816202e-01  3.8891482047151793e-01  4.1741624150321421e-01  3.8951384823059809e-01  4.1666627153497721e-01  3.9329945822330825e-01  4.1615271746682181e-01  4.1564597969380529e-01  4.0974430345842022e-01  4.0047458767136984e-01  4.2229153856076873e-01  4.0934409080983025e-01  4.2396336915352040e-01  4.1840277462063635e-01  4.2798690816195539e-01  4.2770253779439321e-01  4.3147763164024944e-01  4.3664301955610002e-01  4.3475232567848365e-01  4.2570897218127313e-01  4.4452625707681209e-01  4.3751617508996615e-01  4.5096219985174524e-01  4.3990758074336672e-01  4.5588348296824321e-01  4.4179145065853653e-01  4.0536425100565721e-01  3.9881863949823099e-01  4.5963904222990110e-01  4.5842863800086731e-01  4.4260070004201701e-01  4.1295057392318713e-01  4.5761738869785279e-01  4.4129338711559496e-01  4.5350039047608459e-01  4.3701689237726432e-01  4.4457124533576731e-01  4.2834463743235940e-01  4.1062460978348292e-01  4.3128443597148153e-01  4.1508369558458802e-01  4.1229104945816797e-01  3.9709288002688808e-01  3.8949529600238070e-01  3.7588190966574297e-01  4.8900946437853249e-01  3.8104142872598573e-01  3.6407710524564058e-01  3.5253432949889446e-01  3.9832478650782166e-01  3.8989991781511052e-01  4.0171051739906438e-01  3.6264599774072076e-01  3.3718731185822615e-01  3.2863708166027206e-01  3.1094566588601114e-01  3.0647306458147261e-01  2.8772586011036699e-01  2.8793923883683165e-01  4.2314318647592158e-01  3.4844038344776723e-01  4.2045497895794492e-01  4.2639561021303257e-01  2.6972230847640827e-01  2.7374089489124959e-01  2.9646730677899336e-01  2.8588556226221046e-01  2.6500279771713287e-01  2.7965252513228489e-01  2.6171669567923350e-01  2.7763803112218832e-01  2.6329069857352161e-01  2.7888379462525270e-01  2.6899974382751124e-01  2.8283231717544971e-01  2.7751187189260113e-01  2.8706108279283238e-01  2.8697889551436140e-01  2.9036525973409266e-01  2.9523489269685810e-01  2.9029118608792737e-01  3.0082764257808553e-01  2.8684865385224295e-01  3.0251405904668111e-01  2.8051424551609733e-01  3.0197030277102233e-01  2.7321067933843668e-01  4.3271526811268324e-01  3.7880545282686801e-01  2.9866159999470970e-01  2.6658798821882884e-01  2.9371639935625482e-01  2.6273370094160964e-01  4.9876981381085977e-01  2.8929595907398259e-01  2.6102079498922653e-01  4.4965118204313875e-01  4.7394920823174780e-01  3.9409683825480418e-01  3.8791696148899990e-01  3.7674760585526346e-01  3.7420718628225591e-01  3.5824166873903202e-01  3.5622908274504039e-01  3.3467358134553299e-01  3.3501424713453493e-01  3.0574739472557189e-01  3.1154124728211918e-01  2.7440852519104303e-01  2.8848908725248940e-01  2.4350302435041432e-01  2.6552381253317753e-01  2.0875955834348717e-01  2.4152020668883142e-01  1.9575160236649866e-01  2.3338228166522290e-01  1.8641148413764252e-01  2.1875907413871468e-01  1.8235695461291479e-01  2.1532395178866370e-01  1.8460423487243213e-01  2.1620128932283433e-01  1.9084264349230812e-01  2.2001722116931388e-01  1.9913712735909833e-01  2.2555671940985686e-01  2.4880222575297103e-01  2.4745226595174225e-01  2.5075549509351658e-01  2.3220532427483628e-01  2.5489812667565204e-01  2.3966575960293085e-01  2.5988061102662297e-01  2.4732228919418237e-01  2.6530932273128921e-01  2.7544168069748037e-01  2.5224621080264009e-01  2.7088311554518274e-01  2.6230255508930012e-01  2.7717909586050810e-01  2.8732618712046659e-01  2.9178113330827654e-01  2.8332817967178159e-01  2.9635414445638575e-01  2.8994681216869561e-01  3.0131868512338400e-01  3.4238520929404209e-01  2.9635350336906874e-01  3.0627592374944823e-01  3.1304302224955616e-01  3.1677663797787731e-01  3.1104846972780098e-01  3.2069037155741065e-01  3.1590688000539102e-01  3.2479493038316870e-01  1.9063097726755174e-01  2.8098056324015608e-01  2.7103589658192279e-01  1.5044555458010181e-01  3.2026252071698247e-01  3.2894683518603596e-01  3.3356864116767870e-01  3.3714042092482066e-01  3.3331259487372017e-01  3.4084548718981728e-01  3.3781293186499484e-01  3.4477499541254286e-01  3.4818341054242458e-01  3.5145468962918353e-01  3.4880629426582627e-01  3.5502668543554405e-01  3.0262230614903457e-01  3.5298778881373455e-01  3.5875353153850809e-01  1.4926464092861985e-01  3.4355219587721308e-01  3.2415486738638960e-01  1.7124830589258250e-01  3.5719889446793157e-01  3.6275357285097271e-01  3.6424477911838354e-01  3.6821781213902050e-01  3.6669287173559262e-01  3.7203994904492466e-01  3.7366929299675677e-01  3.7723307431193243e-01  3.7596898630888037e-01  3.8093011138215288e-01  2.2859125105212863e-01  3.7999137830257351e-01  3.8481975354048070e-01  3.5506493304242059e-01  2.8017432606516018e-01  4.1828307283702582e-01  2.4813931331896238e-01  3.8579257518193272e-01  3.8952982842030004e-01  3.8880667210371289e-01  3.9337161934290499e-01  2.8673132093467524e-01  2.6228715643113054e-01  2.8381805071166810e-01  2.6400822632310694e-01  2.8033494632098127e-01  2.6533803207134898e-01  3.9303865127342863e-01  3.9741799487588114e-01  4.6780760813131350e-01  3.9788155687878024e-01  4.0179887269059061e-01  4.0139952764652859e-01  4.0577549997862766e-01  4.5588083847567568e-01  3.8442447287208731e-01  3.0685806177033109e-01  2.9603717193080037e-01  2.7579436831118309e-01  2.6496599661490550e-01  3.1255629639942867e-01  2.5650834249903226e-01  2.5588815819175142e-01  2.5908951297349703e-01  2.6235286430281024e-01  2.5909580934837134e-01  2.5734013061235100e-01  2.5596768863690833e-01  2.5006941880113814e-01  2.5001726568331695e-01  2.4081560133663246e-01  2.4169600728715249e-01  2.2976103637616188e-01  2.3130507066210651e-01  2.1733432733383176e-01  2.1989877200992616e-01  2.0431471889814445e-01  2.0811896267822580e-01  1.9194995776101001e-01  1.9683206692796218e-01  1.8096313159850638e-01  1.8653972366250987e-01  1.7167295525025006e-01  1.7766181094804093e-01  1.6465517722297365e-01  1.6987474137870914e-01  4.0557032870990595e-01  4.0986596627027727e-01  4.1029189944994499e-01  4.1418592632333312e-01  4.1407536818123247e-01  4.1829980035183506e-01  1.5968862376834136e-01  1.6284768322713269e-01  1.5590165301120310e-01  1.5528567325851991e-01  1.5121079719499450e-01  1.4638381835628356e-01  2.3782689155802864e-01  4.1817474108925839e-01  4.2254925909542124e-01  4.2270082520973595e-01  4.2690884469405088e-01  3.3108638687552860e-01  3.3587400223401737e-01  4.2687782652759132e-01  4.3115149817400256e-01  4.3113493875146680e-01  4.3542404753117481e-01  4.3548482139136463e-01  4.3974894780373053