<?xml version="1.0"?>
<VTKFile type="UnstructuredGrid"  version="0.1"  >
<UnstructuredGrid>
<Piece  NumberOfPoints="2945" NumberOfCells="5525">
<Points>
<DataArray  type="Float64"  NumberOfComponents="3"  format="ascii">0 0.1 0  0.95 0.1 0  1 0.1 0  1 0 0  1.5 0 0  3 0 0  3 0.3 0  0 0.3 0  0.0197424558707114 0.1 0  0.03915669042224804 0.1 0  0.05824816022699029 0.1 0  0.07702223050332387 0.1 0  0.09548417327144595 0.1 0  0.1136391897583987 0.1 0  0.1314923700144587 0.1 0  0.1490487330862866 0.1 0  0.1663132263225292 0.1 0  0.1832906857273058 0.1 0  0.1999858946008978 0.1 0  0.216403545770297 0.1 0  0.2325482404045023 0.1 0  0.2484245348165176 0.1 0  0.2640368740372501 0.1 0  0.2793896589642241 0.1 0  0.2944872056237027 0.1 0  0.3093337469555254 0.1 0  0.3239334613687816 0.1 0  0.3382904528528069 0.1 0  0.3524087553122972 0.1 0  0.3662923366391824 0.1 0  0.3799451014768399 0.1 0  0.393370886920506 0.1 0  0.4065734648871676 0.1 0  0.419556546320114 0.1 0  0.4323237821343415 0.1 0  0.4448787573056132 0.1 0  0.4572250047274954 0.1 0  0.4693659926332938 0.1 0  0.4813051343276231 0.1 0  0.4930457849308193 0.1 0  0.5045912455271677 0.1 0  0.5159447600209797 0.1 0  0.5271095174127136 0.1 0  0.5380886618453393 0.1 0  0.5488852725463512 0.1 0  0.5595023868312478 0.1 0  0.5699429904313016 0.1 0  0.5802100167387366 0.1 0  0.5903063508274641 0.1 0  0.6002348329443006 0.1 0  0.6099982499579832 0.1 0  0.6195993483501782 0.1 0  0.6290408246013842 0.1 0  0.6383253354321616 0.1 0  0.6474554910757137 0.1 0  0.6564338522440513 0.1 0  0.6652629482939147 0.1 0  0.6739452579188948 0.1 0  0.6824832240165607 0.1 0  0.6908792415022103 0.1 0  0.6991356755989045 0.1 0  0.7072548438546967 0.1 0  0.7152390281534421 0.1 0  0.7230904746196039 0.1 0  0.7308113906759266 0.1 0  0.7384039435269326 0.1 0  0.7458702676581656 0.1 0  0.7532124631720397 0.1 0  0.7604325921167397 0.1 0  0.7675326856666862 0.1 0  0.7745147374421916 0.1 0  0.7813807123989068 0.1 0  0.7881325374362798 0.1 0  0.7947721131625659 0.1 0  0.8013013031866276 0.1 0  0.8077219449067021 0.1 0  0.8140358419942376 0.1 0  0.8202447685401882 0.1 0  0.8263504700910924 0.1 0  0.8323546643163114 0.1 0  0.8382590362474568 0.1 0  0.8440652473522128 0.1 0  0.8497749272799842 0.1 0  0.8553896837646281 0.1 0  0.8609110933285474 0.1 0  0.866340708855119 0.1 0  0.8716800550492284 0.1 0  0.8769306339052932 0.1 0  0.8820939206038667 0.1 0  0.8871713655604893 0.1 0  0.8921643975475726 0.1 0  0.8970744196575535 0.1 0  0.9019028106970642 0.1 0  0.9066509291259979 0.1 0  0.9113201098984042 0.1 0  0.9159116634553873 0.1 0  0.9204268818729691 0.1 0  0.9248670319440222 0.1 0  0.9292333656649013 0.1 0  0.9335271075812669 0.1 0  0.9377494640511216 0.1 0  0.941901623463222 0.1 0  0.9459847526686701 0.1 0  0.9538461538461205 0.1 0  0.9576923076922409 0.1 0  0.9615384615384381 0.1 0  0.9653846153846337 0.1 0  0.9692307692307542 0.1 0  0.9730769230768747 0.1 0  0.9769230769229952 0.1 0  0.9807692307691157 0.1 0  0.9846153846152361 0.1 0  0.9884615384614317 0.1 0  0.9923076923076356 0.1 0  0.9961538461538395 0.1 0  1 0.09591793123533533 0  1 0.09133596463859224 0  1 0.08619288104391448 0  1 0.08041996484521211 0  1 0.07394008421771697 0  1 0.06666666567302955 0  1 0.05850252932209174 0  1 0.04933859630113544 0  1 0.03905242821848202 0  1 0.02750659386753798 0  1 0.01454683679239736 0  1.015625 0 0  1.03125 0 0  1.046875 0 0  1.0625 0 0  1.078125 0 0  1.09375 0 0  1.109375 0 0  1.125 0 0  1.140625 0 0  1.15625 0 0  1.171875 0 0  1.1875 0 0  1.203125 0 0  1.21875 0 0  1.234375 0 0  1.25 0 0  1.265625 0 0  1.28125 0 0  1.296875 0 0  1.3125 0 0  1.328125 0 0  1.34375 0 0  1.359375 0 0  1.375 0 0  1.390625 0 0  1.40625 0 0  1.421875 0 0  1.4375 0 0  1.453125 0 0  1.46875 0 0  1.484375 0 0  1.515920751924515 0 0  1.531989369316721 0 0  1.54820720925872 0 0  1.564575665560501 0 0  1.581096138674279 0 0  1.597770029901263 0 0  1.614598783332311 0 0  1.631583831055205 0 0  1.64872661129721 0 0  1.666028606716533 0 0  1.683491276608443 0 0  1.701116134125304 0 0  1.718904673324128 0 0  1.736858414799339 0 0  1.754978895814663 0 0  1.773267661782904 0 0  1.791726281103402 0 0  1.810356325314689 0 0  1.8291593848892 0 0  1.848137076690385 0 0  1.867291007717254 0 0  1.886622833871288 0 0  1.90613418642363 0 0  1.925826753299799 0 0  1.945702199101513 0 0  1.96576223584749 0 0  1.986008569283268 0 0  2.006442931928877 0 0  2.02706707547783 0 0  2.047882750887917 0 0  2.06889175187935 0 0  2.090095860038271 0 0  2.111496891648636 0 0  2.133096679109554 0 0  2.154897066851056 0 0  2.176899916687499 0 0  2.199107102752146 0 0  2.22152053937028 0 0  2.244142122958061 0 0  2.266973806444078 0 0  2.290017523268154 0 0  2.313275249499252 0 0  2.336748971745516 0 0  2.360440702338606 0 0  2.384352453384031 0 0  2.408486280477412 0 0  2.432844240041185 0 0  2.457428414757088 0 0  2.482240901796653 0 0  2.507283830121838 0 0  2.532559332080812 0 0  2.558069568787417 0 0  2.583816724966441 0 0  2.60980299606584 0 0  2.636030600971886 0 0  2.662501790984011 0 0  2.689218818279327 0 0  2.716183964547616 0 0  2.743399548861297 0 0  2.77086788244719 0 0  2.798591312896326 0 0  2.826572223178268 0 0  2.854812990138617 0 0  2.883316031690714 0 0  2.912083780657189 0 0  2.941118704633482 0 0  2.970423276998917 0 0  3 0.02999999999994495 0  3 0.05999999999987042 0  3 0.089999999999783 0  3 0.119999999999701 0  3 0.149999999999619 0  3 0.179999999999692 0  3 0.2099999999997737 0  3 0.2399999999998511 0  3 0.2699999999999185 0  2.970138294777171 0.3 0  2.940375666438236 0.3 0  2.910711782853056 0.3 0  2.881146331305122 0.3 0  2.851678975030285 0.3 0  2.822309388626621 0.3 0  2.793037250095074 0.3 0  2.76386223529133 0.3 0  2.734784017903872 0.3 0  2.705802289276642 0.3 0  2.676916713794697 0.3 0  2.648126987654635 0.3 0  2.619432780406184 0.3 0  2.590833779385199 0.3 0  2.562329669847737 0.3 0  2.533920134950189 0.3 0  2.505604855727852 0.3 0  2.477383539822502 0.3 0  2.449255847639465 0.3 0  2.421221492569094 0.3 0  2.393280152486815 0.3 0  2.36543151914496 0.3 0  2.337675285481809 0.3 0  2.310011142385583 0.3 0  2.282438797441587 0.3 0  2.254957931061538 0.3 0  2.227568248063605 0.3 0  2.200269436651085 0.3 0  2.173061204949961 0.3 0  2.145943251515011 0.3 0  2.118915272469994 0.3 0  2.091976978084957 0.3 0  2.065128060700849 0.3 0  2.038368218849433 0.3 0  2.01169717777258 0.3 0  1.985114624111908 0.3 0  1.958620267850966 0.3 0  1.93221382054972 0.3 0  1.905894991850698 0.3 0  1.879663489459713 0.3 0  1.853519019126419 0.3 0  1.827461291053897 0.3 0  1.801490031354372 0.3 0  1.775604937580312 0.3 0  1.74980572560258 0.3 0  1.724092118631866 0.3 0  1.698463829173586 0.3 0  1.672920575782554 0.3 0  1.647462076974085 0.3 0  1.622088043536933 0.3 0  1.5967981978949 0.3 0  1.571592267767068 0.3 0  1.546469970305736 0.3 0  1.521431023814044 0.3 0  1.496475156230927 0.3 0  1.471602093687753 0.3 0  1.446811560490646 0.3 0  1.422103279101731 0.3 0  1.397476971708191 0.3 0  1.37293238939876 0.3 0  1.348469231419202 0.3 0  1.324087248732772 0.3 0  1.299786165921677 0.3 0  1.275565710847046 0.3 0  1.251425617644257 0.3 0  1.227365618676339 0.3 0  1.203385446174014 0.3 0  1.179484853067473 0.3 0  1.155663548773374 0.3 0  1.131921292279077 0.3 0  1.108257802159295 0.3 0  1.084672829009693 0.3 0  1.061166115303374 0.3 0  1.037737392995421 0.3 0  1.01438640299116 0.3 0  0.991112899770314 0.3 0  0.9679166155523955 0.3 0  0.944797284182564 0.3 0  0.921754678526042 0.3 0  0.8987885143602501 0.3 0  0.8758985548820624 0.3 0  0.8530845484099929 0.3 0  0.8303462351786988 0.3 0  0.8076833651172373 0.3 0  0.7850956864865304 0.3 0  0.7625829601354557 0.3 0  0.7401449314598274 0.3 0  0.717781337993959 0.3 0  0.6954919649675473 0.3 0  0.6732765357561226 0.3 0  0.6511348120768439 0.3 0  0.6290665642016573 0.3 0  0.6070715355430467 0.3 0  0.5851494825775325 0.3 0  0.5633001690203812 0.3 0  0.5415233562273221 0.3 0  0.5198187909431873 0.3 0  0.4981862401387795 0.3 0  0.4766254686134248 0.3 0  0.4551362360485234 0.3 0  0.4337182975262159 0.3 0  0.4123714223228037 0.3 0  0.3910953802377493 0.3 0  0.3698899313205595 0.3 0  0.3487548463710963 0.3 0  0.3276898864081783 0.3 0  0.3066948129116018 0.3 0  0.2857694003037476 0.3 0  0.2649134227095047 0.3 0  0.2441266417321288 0.3 0  0.2234088223399122 0.3 0  0.2027597568977288 0.3 0  0.1821792020676698 0.3 0  0.1616669305402443 0.3 0  0.1412227158799362 0.3 0  0.12084633013886 0.3 0  0.1005375673448281 0.3 0  0.08029618164595353 0.3 0  0.06012194778526769 0.3 0  0.04001466495039718 0.3 0  0.01997408913631205 0.3 0  0 0.2800000000000553 0  0 0.2600000000001105 0  0 0.2400000000001658 0  0 0.2200000000002211 0  0 0.2000000000002764 0  0 0.1800000000002244 0  0 0.1600000000001691 0  0 0.140000000000115 0  0 0.1200000000000564 0  1.133778471000506 0.01219539743990768 0  1.003741919047894 0.09354664821474232 0  0.9559421147150347 0.1035858189992458 0  0.9313792160389045 0.1037365237938103 0  0.9788461538460573 0.1033060829993555 0  0.9090102438250753 0.1037269304984056 0  0.8846304212778655 0.1043349840723655 0  0.8581503885465881 0.104741932962923 0  0.8286416220145676 0.1052762843984476 0  0.7982741772533339 0.1053575624517407 0  0.7708789559342691 0.1060290465840416 0  0.741870349714261 0.1078220590984258 0  0.7112469360040695 0.10685702926368 0  0.6783901541417233 0.1079959711853378 0  0.642884733623195 0.1075561996086514 0  0.6056235042367955 0.1085956039602543 0  0.5647007593786924 0.1083187281660325 0  1.1953125 0.01353164693413185 0  1.258148737344733 0.01268350115427042 0  1.320087046516829 0.01426312402966312 0  1.383495130751951 0.01432665475473204 0  1.4453125 0.01315663539200989 0  1.50886768312388 0.01395488397722681 0  0.9942307692307371 0.103330866937657 0  1.119309781943483 0.2802014914557878 0  1.572831235329714 0.01707210522554785 0  1.637611634353954 0.01209340368483431 0  1.709661292005932 0.0146870244871893 0  1.006561890631532 0.07068055446055937 0  1.784793444007901 0.01499371444634687 0  1.855459587353174 0.0
[...]
<PointData  Scalars="pressure"> 
<DataArray  type="Float64"  Name="pressure"  format="ascii">8.9693495699379544e-01  4.1687662450560492e-01  3.7095682035760080e-01  5.7659542691626842e-01  5.8103182884958982e-01  0.0000000000000000e+00  0.0000000000000000e+00  8.9703761474022214e-01  8.9101233331571617e-01  8.8518714418930211e-01  8.7945746712423933e-01  8.7382157828169860e-01  8.6827758477274053e-01  8.6282399776409791e-01  8.5745898724949232e-01  8.5218083031823988e-01  8.4698810798163304e-01  8.4187862434820049e-01  8.3685091458365768e-01  8.3190346817193350e-01  8.2703425838879252e-01  8.2224181601509383e-01  8.1752410097405859e-01  8.1287961151381716e-01  8.0830617531180504e-01  8.0380241373632433e-01  7.9936605678820027e-01  7.9499570181874180e-01  7.9068865187406956e-01  7.8644369502311495e-01  7.8225965175798606e-01  7.7813255848224938e-01  7.7406156680853255e-01  7.7004424640058911e-01  7.6607925024169232e-01  7.6216284636789522e-01  7.5829500256608995e-01  7.5447104436475565e-01  7.5069136883839538e-01  7.4695237459205466e-01  7.4325083617240950e-01  7.3958519683638824e-01  7.3595382387882513e-01  7.3235347040666154e-01  7.2878103019291551e-01  7.2523537192609033e-01  7.2171263222197568e-01  7.1821143968816203e-01  7.1472773881178131e-01  7.1125934878876063e-01  7.0780428210954116e-01  7.0435912395753020e-01  7.0092027716277316e-01  6.9748653520321247e-01  6.9405327290145580e-01  6.9061846917912828e-01  6.8717933917726248e-01  6.8372859552838849e-01  6.8027265714207585e-01  6.7679388471104751e-01  6.7330230341419584e-01  6.6978954649230860e-01  6.6625094050633948e-01  6.6268240673166345e-01  6.5908296649289200e-01  6.5543834583043392e-01  6.5176663626551479e-01  6.4804419562536908e-01  6.4426775390207625e-01  6.4044282683252096e-01  6.3655173150978672e-01  6.3260836010197130e-01  6.2858913772800140e-01  6.2449332932320500e-01  6.2031765521266102e-01  6.1605454086325173e-01  6.1169789008699993e-01  6.0723656764991674e-01  6.0266775883747581e-01  5.9797994978882330e-01  5.9317326806864934e-01  5.8822812187868068e-01  5.8313018910755310e-01  5.7787895388810417e-01  5.7245786244161956e-01  5.6684552964805990e-01  5.6104451885639028e-01  5.5502688462020577e-01  5.4877021225925704e-01  5.4224442575383469e-01  5.3544818636649139e-01  5.2834296560006955e-01  5.2089501130740856e-01  5.1306115045324596e-01  5.0480035432967463e-01  4.9606847783810326e-01  4.8673379885605417e-01  4.7678722101526977e-01  4.6611295293120192e-01  4.5450770957528303e-01  4.4181918621697269e-01  4.2820964613552120e-01  4.0863059674060209e-01  3.6073091661011009e-01  3.3053064824319123e-01  3.3258614901200112e-01  3.5345512723894928e-01  3.8846912166275160e-01  4.3039896749517509e-01  4.7480880416001037e-01  5.1658706923250908e-01  5.5269343976994434e-01  5.7940167789411778e-01  5.8609831779135391e-01  6.1544625393219754e-01  3.9054101403646796e-01  4.8221943204008400e-01  5.0830407254538656e-01  5.2691583726190150e-01  5.3902186218259607e-01  5.4864041346837034e-01  5.5737288826714648e-01  5.6550352225554723e-01  5.7272703369555134e-01  5.7755509241100256e-01  5.7814581961227318e-01  5.7472800474019237e-01  5.7501850237290764e-01  5.7894116942031737e-01  5.8781997132140396e-01  6.0330355472135933e-01  6.2642191140953596e-01  6.5697660077923858e-01  6.9319980092002953e-01  7.3079145776979071e-01  7.6535094345772814e-01  7.9345439392459804e-01  8.1289621981803584e-01  8.2317313860073782e-01  8.2496982355037807e-01  8.1968500248248977e-01  8.0872830918399663e-01  7.9393849846184184e-01  7.7666176207032067e-01  7.5822485936150474e-01  7.3952645297483388e-01  7.2086634386584103e-01  7.0333410810839070e-01  6.8655487854745689e-01  6.7108344428053901e-01  6.5680431863280353e-01  6.4379440930900789e-01  6.3168905037992817e-01  6.2063205747313599e-01  6.1025735464836106e-01  6.0040634531052473e-01  5.9074983230341482e-01  5.7088850219732235e-01  5.6047651105190133e-01  5.5009295635838196e-01  5.4051026600378360e-01  5.3241481837488203e-01  5.2696509112349665e-01  5.2468540564497756e-01  5.2580983336204334e-01  5.3025782632137886e-01  5.3680000376743531e-01  5.4408452662957141e-01  5.5070483466433573e-01  5.5543948621354078e-01  5.5732443684340205e-01  5.5597381602881857e-01  5.5135448657036823e-01  5.4390195682780984e-01  5.3408855687833690e-01  5.2230590335035176e-01  5.0965403169730750e-01  4.9581476248662598e-01  4.8168174647707601e-01  4.6745058745502904e-01  4.5314724031927595e-01  4.3890456814079765e-01  4.2424076849022391e-01  4.0929391663740478e-01  3.9306046054193483e-01  3.7571171899717293e-01  3.5750463728387155e-01  3.3905293374895473e-01  3.2179888541726587e-01  3.0727817223620268e-01  2.9702598742292946e-01  2.9200265755896404e-01  2.9242770498746173e-01  2.9758336730299600e-01  3.0585104976087180e-01  3.1524464706944266e-01  3.2363103673247962e-01  3.2933472743435060e-01  3.3131327466944543e-01  3.2923796823152457e-01  3.2333087325906645e-01  3.1417722614177623e-01  3.0251521159338163e-01  2.8897072379100391e-01  2.7412999154893108e-01  2.5858771241783202e-01  2.4262640897029697e-01  2.2619711317431510e-01  2.1009359783632525e-01  1.9318191336100099e-01  1.7595025334301090e-01  1.5722268420321922e-01  1.3658484830585155e-01  1.1545943052089165e-01  9.3606709105648792e-02  7.3684437023584987e-02  5.7079946829264545e-02  4.5447241091410684e-02  3.8530945417694626e-02  3.5756568818245564e-02  3.4675258543117600e-02  3.3100052626125864e-02  2.8192613325095872e-02  1.7843084784858309e-02  0.0000000000000000e+00  0.0000000000000000e+00  0.0000000000000000e+00  0.0000000000000000e+00  0.0000000000000000e+00  0.0000000000000000e+00  0.0000000000000000e+00  0.0000000000000000e+00  0.0000000000000000e+00  1.5008460526372057e-02  3.2084321187678518e-02  5.0744700640952455e-02  6.9354921580711812e-02  8.7693400451559225e-02  1.0550456547084612e-01  1.2254605826124992e-01  1.3832952753253075e-01  1.5220577192076598e-01  1.6358402685212220e-01  1.7208266895553703e-01  1.7773582479887767e-01  1.8109877187542203e-01  1.8322305172154138e-01  1.8554346635937388e-01  1.8956368903047988e-01  1.9652054099750568e-01  2.0709318318468972e-01  2.2114819400101313e-01  2.3781659169632430e-01  2.5586660162839581e-01  2.7414080358759935e-01  2.9202444003609906e-01  3.0941937007141757e-01  3.2679172399110767e-01  3.4457306235979906e-01  3.6294836129090630e-01  3.8181187213176054e-01  4.0024253275744015e-01  4.1715396898012869e-01  4.3101018750377634e-01  4.4037555959207741e-01  4.4389576274873055e-01  4.4136394607740054e-01  4.3272902028902277e-01  4.2034224939271375e-01  4.0674736614920476e-01  3.9523025548246576e-01  3.8877916004150753e-01  3.8952533116226346e-01  3.9854045388773407e-01  4.1686525787504825e-01  4.4199191092876899e-01  4.7187359827123382e-01  5.0342669246360194e-01  5.3397014205385829e-01  5.6144508224127643e-01  5.8460139174820747e-01  6.0317308605480946e-01  6.1672964371990369e-01  6.2450964297680045e-01  6.2630903665066318e-01  6.2175347640577372e-01  6.1163583172038982e-01  5.9635798508727067e-01  5.7773541574760312e-01  5.5791409180431406e-01  5.3951465633041373e-01  5.2493821473824676e-01  5.1607583304039895e-01  5.1370257042150502e-01  5.1785414817625419e-01  5.2745851723088477e-01  5.4057119345105253e-01  5.5569811351271892e-01  5.7122794735708626e-01  5.8624869678971492e-01  5.9997853998503825e-01  6.1221319745050884e-01  6.2305917609915895e-01  6.3274382743992297e-01  6.4172737233540267e-01  6.4983951732269862e-01  6.5704487858839078e-01  6.6304166328042002e-01  6.6799437631897496e-01  6.7161842196074839e-01  6.7444855883076782e-01  6.7638688347963660e-01  6.7770362401300621e-01  6.7898471858420606e-01  6.8031330402671353e-01  6.8191756128154146e-01  6.8383397010450264e-01  6.8625902606900602e-01  6.8918245145639478e-01  6.9257370788594019e-01  6.9637553983680434e-01  7.0064676510548640e-01  7.0522651887821763e-01  7.1013411275936822e-01  7.1528805021720510e-01  7.2065583599910876e-01  7.2621731348226592e-01  7.3193609722329489e-01  7.3777269840400972e-01  7.4370564946436191e-01  7.4972565915083078e-01  7.5580697157141075e-01  7.6193135299353487e-01  7.6808770399544835e-01  7.7427649465113224e-01  7.8047986693413374e-01  7.8669474642114012e-01  7.9291363651898483e-01  7.9913399116014816e-01  8.0535277524525972e-01  8.1156207780183243e-01  8.1776608834897424e-01  8.2395652558423937e-01  8.3013605688250214e-01  8.3630173314926048e-01  8.4245167814499955e-01  8.4858676109790743e-01  8.5470508605811568e-01  8.6080641774099920e-01  8.6689032825293511e-01  8.7295643100077924e-01  8.7900448731247505e-01  8.8503424252014751e-01  8.9104537680475371e-01  8.9703733954451226e-01  8.9703315978952536e-01  8.9702264440159973e-01  8.9700626544177819e-01  8.9698630787093492e-01  8.9696638170144116e-01  8.9694994256205784e-01  8.9693950696089653e-01  8.9693531066691989e-01  7.1164191522702225e-01  4.7103271437173372e-01  3.3419715549764667e-01  4.5772633097357285e-01  4.8810040144927591e-01  5.0747969884888444e-01  5.4449060067880217e-01  5.7442659512462835e-01  6.0031784225574192e-01  6.2185395264231225e-01  6.3825288163795713e-01  6.5343316454241485e-01  6.6782151900652997e-01  6.8176486072763642e-01  6.9566255007393829e-01  7.0926857657078890e-01  7.2342740877873746e-01  8.1561548058867328e-01  7.9949071531010363e-01  7.3002066989175673e-01  6.6392635566000835e-01  6.1611878979716284e-01  5.7643877762866524e-01  5.6617693219715848e-01  6.2872575989274437e-01  5.3667697847679285e-01  5.2623334668762844e-01  5.5180607632061585e-01  5.4294288752016617e-01  5.4732179018959537e-01  5.0561500710811702e-01  7.3761496982124053e-01  4.4684319899245345e-01  5.8007599680433541e-01  5.2251684935218767e-01  3.8265463493591156e-01  5.3003151212421862e-01  7.5277283641306214e-01  6.1433434270172982e-01  3.1562844511238652e-01  7.6736127807061205e-01  6.1471573241542299e-01  2.9297490232527590e-01  5.9518765277656138e-01  6.5396483455084953e-01  7.8387225074857225e-01  3.2542004625413551e-01  4.2921501640394771e-01  8.0187697464635965e-01  3.8624792156326576e-01  3.1888131335936248e-01  4.1166684367997336e-01  6.7461358065075838e-01  2.6515454217204248e-01  8.1987912811424557e-01  4.4184402157449892e-01  6.7982013285068310e-01  6.8381085748776149e-01  4.2424454806587469e-01  2.0257304637015375e-01  8.3986178491714458e-01  8.5470082973108308e-01  5.2116957853886225e-01  1.4839334859925790e-01  8.1757828677939570e-02  6.9462695237921801e-01  3.7220320080168395e-01  3.0016806846608707e-01  7.0804012794308546e-01  4.1674922835220468e-01  3.6420336567384365e-01  7.2338079933305710e-01  2.4733852131153375e-01  4.0301160057072641e-02  7.4594051926968041e-01  1.9154599003958070e-01  7.7722046397476663e-01  1.8085426680544162e-01  8.0846280129339254e-01  1.6793297300752258e-01  8.2694841960484677e-01  8.6371877228506666e-01  8.4566578872296649e-01  1.3142949067476131e-01  8.9193428095319327e-01  1.0303657359660537e-02  8.7123873824622677e-01  5.6807872555622585e-01  8.1129787722094199e-02  3.2195848400468255e-02  5.2078648238443215e-01  5.8420683501167958e-01  6.6661576009583512e-01  6.0719233425656716e-01  6.8814480910836096e-01  7.3495748324727161e-01  7.5860056062788594e-01  7.9054014160273844e-01  6.2531666750614867e-01  5.6613525844034307e-01  5.1360353557720029e-01  5.4929657670405951e-01  8.2946600648859858e-01  8.1066961580308006e-01  3.3587123063018814e-01  2.1367458343146215e-01  7.9330486812695156e-01  2.3576819989405731e-01  8.7588423005309046e-01  2.9547987035439360e-01  3.2992278718775836e-01  7.7577134902452427e-01  3.0873703271903563e-01  8.9193815853533231e-01  2.9358681790095043e-01  7.6030932817474250e-01  3.5199258884008994e-01  4.1600646446021983e-01  5.5628452432571551e-01  4.7707774592311114e-01  7.4492911268105932e-01  5.2953954995632768e-01  5.5637090857510041e-01  5.3832921156908975e-01  7.3039877980564083e-01  5.2467318691005427e-01  1.1288034620706247e-02  7.1640542552914710e-01  7.0250410415721298e-01  6.8847270767598134e-01  6.7527654735398701e-01  6.6041595355786953e-01  6.4587891937492059e-01  6.2984499112085102e-01  6.0900159739155491e-01  7.7825647816072141e-01  5.8505501943309302e-01  5.5690056164619484e-01  5.2332635549967343e-01  8.2023249885731075e-01  4.8140371197823401e-01  6.9566317464160299e-01  7.6489311866460308e-01  6.4018754010773393e-01  5.9638328781940897e-01  8.9229889300247678e-01  5.5742517481705556e-01  1.2289703776852045e-02  8.8228334889146343e-01  4.2165815191936781e-02  5.7675962097821432e-01  1.4361198381438357e-02  8.9251272923292468e-01  5.7889748234564586e-01  5.7865989684200003e-01  5.8305970119575901e-01  5.7351743502697416e-01  5.7772536161407906e-01  5.6726370238282464e-01  5.7352691494519259e-01  5.6334449302605127e-01  5.7245647555875467e-01  5.6370812080397981e-01  5.7653863366778357e-01  5.6896981806828872e-01  5.8590845785019274e-01  5.7856966581242042e-01  5.9787206535639781e-01  5.9033384316913584e-01  6.0962305187856003e-01  6.0170371202849038e-01  6.1853650085713008e-01  6.1160737568598422e-01  6.2437295233236612e-01  5.9664038898039196e-01  6.3605649305068357e-01  6.3504047263081576e-01  6.0853959791303358e-01  5.9467876184561852e-01  6.5063252627909907e-01  6.4295159850270966e-01  6.6107243659645942e-01  6.4640681385911891e-01  6.6828005266442791e-01  6.4602213123122743e-01  6.6988926488551692e-01  6.4192732380153195e-01  6.6645382415949550e-01  6.2790481906204265e-01  6.5551092935131772e-01  6.1957358107595983e-01  6.4388351773466779e-01  6.0618234553042971e-01  6.2960372532438613e-01  5.8569048062423368e-01  6.1321971459063085e-01  5.7570745721847405e-01  5.9911582931947183e-01  5.6188729479263266e-01  5.8547328962291145e-01  5.4991384499462814e-01  5.7422028415234627e-01  5.4086018895874177e-01  5.6356278307413366e-01  6.0910322358939772e-01  5.9909376309451468e-01  5.3612748025720758e-01  5.6292021230482103e-01  5.3573542904986982e-01  5.5845596542914333e-01  5.3853333998562436e-01  5.6022943163269068e-01  5.4475699285025803e-01  5.6411840219819942e-01  5.5400340549900728e-01  5.6974112533853782e-01  6.3100714785478784e-01  5.6472978555410103e-01  5.7612033215821046e-01  5.7600105202403684e-01  5.8233710954062878e-01  5.8672697750096348e-01  5.8773772687225945e-01  6.1335602423548652e-01  6.0500790369533852e-01  5.6338182512702184e-01  5.9622464595107960e-01  5.9190076939046143e-01  5.8198309210357368e-01  6.0357028881116026e-01  5.9455737641155693e-01  6.0887538253495954e-01  5.9586187160416149e-01  6.1154697548190562e-01  5.9581856056350302e-01  6.2685067587281940e-01  6.1235051997828516e-01  5.9434912834565723e-01  6.0880457544217581e-01  5.9025088528159109e-01  6.0188114379727375e-01  5.8322808030266915e-01  6.0918131473928971e-01  5.9162074555056632e-01  5.9025981179342568e-01  5.7199078819183269e-01  6.2051422554460878e-01  6.1103195012368894e-01  6.2502077756425756e-01  5.4496151143274341e-01  5.7456569229359089e-01  5.5548414524749956e-01  5.5280665261511719e-01  5.3424256003207271e-01  5.2668008007912614e-01  5.1005918681165097e-01  5.8279052858768410e-01  5.5353816119329524e-01  5.7734437120295012e-01  5.8124364568890119e-01  4.9756977136174280e-01  4.8382760242890255e-01  5.0074007687130151e-01  4.7844515950946054e-01  4.5755729719037952e-01  4.5669285443934271e-01  4.3334853694723990e-01  4.3646453425673148e-01  4.1262378988731618e-01  4.1904184437913672e-01  3.9678888286606001e-01  4.0635297068030007e-01  3.8651665004773794e-01  3.9796441994601434e-01  3.8130223024368970e-01  3.9385927665741532e-01  3.8095370596985595e-01  3.9310567403735330e-01  3.8413376041530001e-01  3.9360994581938474e-01  3.8899053757228164e-01  3.9357378575291024e-01  3.9395693078140986e-01  3.9155058293106448e-01  5.7919270745598217e-01  5.1671773854410430e-01  3.9721343458598818e-01  3.8593036088168803e-01  3.9690309613713715e-01  3.7720401021275607e-01  6.9643629223609793e-01  3.9265919017276701e-01  3.6527099531741775e-01  6.2676464280171695e-01  6.7365002169175037e-01  6.2972705758718528e-01  6.2894674711260479e-01  6.0468862767630704e-01  6.1762011778480341e-01  5.9477043750788794e-01  6.0789731558005244e-01  5.8379206885162815e-01  5.9865378750753240e-01  5.7251377557999017e-01  5.8921694830513616e-01  5.6184289168141355e-01  5.8166854363965803e-01  5.5267437947164955e-01  5.7481411033441621e-01  5.4222487571718525e-01  5.6734670763349793e-01  5.4291914618018300e-01  5.6914081767858893e-01  5.4359650408559645e-01  5.6545719873089362e-01  5.4637054255540873e-01  5.6761904739744795e-01  5.5153178143082693e-01  5.7144976085298060e-01  5.5811425571243634e-01  5.7634149348013297e-01  5.6531067263433366e-01  5.8189999895051403e-01  5.8672179993971940e-01  5.9421914673090404e-01  5.9835596662704260e-01  5.8779827327143741e-01  6.0271249987811615e-01  5.9393603912258930e-01  6.0737989770601875e-01  5.9999560138985164e-01  6.1217395491218629e-01  6.1669315220067000e-01  6.0425970508282134e-01  6.1697322755896156e-01  6.1193494129613457e-01  6.2226209862233361e-01  6.2849752764168776e-01  6.3264889997577489e-01  6.2743245475200804e-01  6.3684007682869204e-01  6.3292342013417158e-01  6.4127528991861282e-01  5.7215757471576534e-01  6.3828428391929759e-01  6.4572364557024675e-01  6.5003861955322917e-01  6.5370638434732331e-01  6.5004890873558996e-01  6.5748767756884707e-01  6.5443775465351406e-01  6.6139244110953199e-01  5.2320799352366099e-01  5.9088334441714618e-01  5.4572504342953732e-01  5.2081546279926427e-01  6.5852705647226739e-01  6.6534777793782995e-01  6.6836414217141971e-01  6.7195618925169687e-01  6.6946185267950153e-01  6.7563833428730391e-01  6.7369151123576954e-01  6.7948997321017013e-01  6.8173847488790695e-01  6.8514705842087165e-01  6.8344116391984411e-01  6.8877614932578712e-01  6.3946537698851114e-01  6.8750965452112400e-01  6.9251216704131191e-01  5.3038208321570923e-01  6.1475958843005374e-01  6.5849073568269156e-01  5.4865410588871699e-01  6.9158830687764783e-01  6.9647470000257750e-01  6.9730383703276433e-01  7.0132438101104944e-01  7.0037781391090270e-01  7.0519355608826306e-01  7.0623085216858372e-01  7.0991921057123553e-01  7.0914098225582689e-01  7.1370004562574074e-01  5.8775960938673610e-01  7.1315564704289147e-01  7.1763898895751521e-01  6.8762658530112575e-01  6.2592890072139407e-01  5.2513533597867601e-01  6.0239353470286305e-01  7.1821506601221952e-01  7.2204934917110697e-01  7.2165259070509957e-01  7.2595773803621333e-01  3.8655728383048854e-01  3.5384561825223609e-01  3.7873082247521528e-01  3.4344533151942575e-01  3.7038265872033271e-01  3.3620568633845027e-01  7.2589041970338075e-01  7.3004695381340912e-01  5.9424854953489992e-01  7.3024773538053311e-01  7.3423471082938574e-01  7.3404957750074296e-01  7.3825850962180428e-01  5.5884306218340685e-01  6.3648708123475584e-01  6.4748656766137092e-01  4.2276737478088333e-01  3.6264437528652005e-01  3.3209164836694793e-01  5.0063913342580924e-01  3.9410538686794860e-01  3.0723851026237814e-01  3.0798409822580625e-01  3.3027980143805691e-01  3.1156960848117798e-01  3.2875731785280243e-01  3.1562001261366773e-01  3.2625067867544394e-01  3.1783386499338467e-01  3.2141908633236099e-01  3.1659745305832093e-01  3.1394670520757056e-01  3.1143209937746569e-01  3.0397694025662642e-01  3.0282880401267137e-01  2.9198470503678209e-01  2.9164989858681634e-01  2.7873591913749990e-01  2.7869452807811834e-01  2.6435450978953901e-01  2.6457100340755085e-01  2.4893052342041669e-01  2.4993985287335704e-01  2.3353568709955924e-01  2.3533751020864785e-01  7.3822287006770559e-01  7.4237593770251165e-01  7.4264618858048448e-01  7.4658238997118809e-01  7.4660098375413031e-01  7.5072319212045391e-01  2.1910629014728980e-01  2.2168316385796608e-01  2.0682653028607606e-01  2.0916581435646472e-01  1.9410484352716548e-01  1.9758081751356515e-01  3.3509814814873212e-01  7.5045413345551282e-01  7.5488441955581775e-01  7.5514422620756527e-01  7.5927696155183300e-01  6.6817341830274979e-01  6.7253568590158308e-01  7.5914673264540078e-01  7.6345896917333689e-01  7.6352264145227189e-01  7.6775810481187612e-01  7.6788222655788563e-01  7.7209987841462713e-01  7.719629397