<?xml version="1.0"?>
<VTKFile type="UnstructuredGrid"  version="0.1"  >
<UnstructuredGrid>
<Piece  NumberOfPoints="2945" NumberOfCells="5525">
<Points>
<DataArray  type="Float64"  NumberOfComponents="3"  format="ascii">0 0.1 0  0.95 0.1 0  1 0.1 0  1 0 0  1.5 0 0  3 0 0  3 0.3 0  0 0.3 0  0.0197424558707114 0.1 0  0.03915669042224804 0.1 0  0.05824816022699029 0.1 0  0.07702223050332387 0.1 0  0.09548417327144595 0.1 0  0.1136391897583987 0.1 0  0.1314923700144587 0.1 0  0.1490487330862866 0.1 0  0.1663132263225292 0.1 0  0.1832906857273058 0.1 0  0.1999858946008978 0.1 0  0.216403545770297 0.1 0  0.2325482404045023 0.1 0  0.2484245348165176 0.1 0  0.2640368740372501 0.1 0  0.2793896589642241 0.1 0  0.2944872056237027 0.1 0  0.3093337469555254 0.1 0  0.3239334613687816 0.1 0  0.3382904528528069 0.1 0  0.3524087553122972 0.1 0  0.3662923366391824 0.1 0  0.3799451014768399 0.1 0  0.393370886920506 0.1 0  0.4065734648871676 0.1 0  0.419556546320114 0.1 0  0.4323237821343415 0.1 0  0.4448787573056132 0.1 0  0.4572250047274954 0.1 0  0.4693659926332938 0.1 0  0.4813051343276231 0.1 0  0.4930457849308193 0.1 0  0.5045912455271677 0.1 0  0.5159447600209797 0.1 0  0.5271095174127136 0.1 0  0.5380886618453393 0.1 0  0.5488852725463512 0.1 0  0.5595023868312478 0.1 0  0.5699429904313016 0.1 0  0.5802100167387366 0.1 0  0.5903063508274641 0.1 0  0.6002348329443006 0.1 0  0.6099982499579832 0.1 0  0.6195993483501782 0.1 0  0.6290408246013842 0.1 0  0.6383253354321616 0.1 0  0.6474554910757137 0.1 0  0.6564338522440513 0.1 0  0.6652629482939147 0.1 0  0.6739452579188948 0.1 0  0.6824832240165607 0.1 0  0.6908792415022103 0.1 0  0.6991356755989045 0.1 0  0.7072548438546967 0.1 0  0.7152390281534421 0.1 0  0.7230904746196039 0.1 0  0.7308113906759266 0.1 0  0.7384039435269326 0.1 0  0.7458702676581656 0.1 0  0.7532124631720397 0.1 0  0.7604325921167397 0.1 0  0.7675326856666862 0.1 0  0.7745147374421916 0.1 0  0.7813807123989068 0.1 0  0.7881325374362798 0.1 0  0.7947721131625659 0.1 0  0.8013013031866276 0.1 0  0.8077219449067021 0.1 0  0.8140358419942376 0.1 0  0.8202447685401882 0.1 0  0.8263504700910924 0.1 0  0.8323546643163114 0.1 0  0.8382590362474568 0.1 0  0.8440652473522128 0.1 0  0.8497749272799842 0.1 0  0.8553896837646281 0.1 0  0.8609110933285474 0.1 0  0.866340708855119 0.1 0  0.8716800550492284 0.1 0  0.8769306339052932 0.1 0  0.8820939206038667 0.1 0  0.8871713655604893 0.1 0  0.8921643975475726 0.1 0  0.8970744196575535 0.1 0  0.9019028106970642 0.1 0  0.9066509291259979 0.1 0  0.9113201098984042 0.1 0  0.9159116634553873 0.1 0  0.9204268818729691 0.1 0  0.9248670319440222 0.1 0  0.9292333656649013 0.1 0  0.9335271075812669 0.1 0  0.9377494640511216 0.1 0  0.941901623463222 0.1 0  0.9459847526686701 0.1 0  0.9538461538461205 0.1 0  0.9576923076922409 0.1 0  0.9615384615384381 0.1 0  0.9653846153846337 0.1 0  0.9692307692307542 0.1 0  0.9730769230768747 0.1 0  0.9769230769229952 0.1 0  0.9807692307691157 0.1 0  0.9846153846152361 0.1 0  0.9884615384614317 0.1 0  0.9923076923076356 0.1 0  0.9961538461538395 0.1 0  1 0.09591793123533533 0  1 0.09133596463859224 0  1 0.08619288104391448 0  1 0.08041996484521211 0  1 0.07394008421771697 0  1 0.06666666567302955 0  1 0.05850252932209174 0  1 0.04933859630113544 0  1 0.03905242821848202 0  1 0.02750659386753798 0  1 0.01454683679239736 0  1.015625 0 0  1.03125 0 0  1.046875 0 0  1.0625 0 0  1.078125 0 0  1.09375 0 0  1.109375 0 0  1.125 0 0  1.140625 0 0  1.15625 0 0  1.171875 0 0  1.1875 0 0  1.203125 0 0  1.21875 0 0  1.234375 0 0  1.25 0 0  1.265625 0 0  1.28125 0 0  1.296875 0 0  1.3125 0 0  1.328125 0 0  1.34375 0 0  1.359375 0 0  1.375 0 0  1.390625 0 0  1.40625 0 0  1.421875 0 0  1.4375 0 0  1.453125 0 0  1.46875 0 0  1.484375 0 0  1.515920751924515 0 0  1.531989369316721 0 0  1.54820720925872 0 0  1.564575665560501 0 0  1.581096138674279 0 0  1.597770029901263 0 0  1.614598783332311 0 0  1.631583831055205 0 0  1.64872661129721 0 0  1.666028606716533 0 0  1.683491276608443 0 0  1.701116134125304 0 0  1.718904673324128 0 0  1.736858414799339 0 0  1.754978895814663 0 0  1.773267661782904 0 0  1.791726281103402 0 0  1.810356325314689 0 0  1.8291593848892 0 0  1.848137076690385 0 0  1.867291007717254 0 0  1.886622833871288 0 0  1.90613418642363 0 0  1.925826753299799 0 0  1.945702199101513 0 0  1.96576223584749 0 0  1.986008569283268 0 0  2.006442931928877 0 0  2.02706707547783 0 0  2.047882750887917 0 0  2.06889175187935 0 0  2.090095860038271 0 0  2.111496891648636 0 0  2.133096679109554 0 0  2.154897066851056 0 0  2.176899916687499 0 0  2.199107102752146 0 0  2.22152053937028 0 0  2.244142122958061 0 0  2.266973806444078 0 0  2.290017523268154 0 0  2.313275249499252 0 0  2.336748971745516 0 0  2.360440702338606 0 0  2.384352453384031 0 0  2.408486280477412 0 0  2.432844240041185 0 0  2.457428414757088 0 0  2.482240901796653 0 0  2.507283830121838 0 0  2.532559332080812 0 0  2.558069568787417 0 0  2.583816724966441 0 0  2.60980299606584 0 0  2.636030600971886 0 0  2.662501790984011 0 0  2.689218818279327 0 0  2.716183964547616 0 0  2.743399548861297 0 0  2.77086788244719 0 0  2.798591312896326 0 0  2.826572223178268 0 0  2.854812990138617 0 0  2.883316031690714 0 0  2.912083780657189 0 0  2.941118704633482 0 0  2.970423276998917 0 0  3 0.02999999999994495 0  3 0.05999999999987042 0  3 0.089999999999783 0  3 0.119999999999701 0  3 0.149999999999619 0  3 0.179999999999692 0  3 0.2099999999997737 0  3 0.2399999999998511 0  3 0.2699999999999185 0  2.970138294777171 0.3 0  2.940375666438236 0.3 0  2.910711782853056 0.3 0  2.881146331305122 0.3 0  2.851678975030285 0.3 0  2.822309388626621 0.3 0  2.793037250095074 0.3 0  2.76386223529133 0.3 0  2.734784017903872 0.3 0  2.705802289276642 0.3 0  2.676916713794697 0.3 0  2.648126987654635 0.3 0  2.619432780406184 0.3 0  2.590833779385199 0.3 0  2.562329669847737 0.3 0  2.533920134950189 0.3 0  2.505604855727852 0.3 0  2.477383539822502 0.3 0  2.449255847639465 0.3 0  2.421221492569094 0.3 0  2.393280152486815 0.3 0  2.36543151914496 0.3 0  2.337675285481809 0.3 0  2.310011142385583 0.3 0  2.282438797441587 0.3 0  2.254957931061538 0.3 0  2.227568248063605 0.3 0  2.200269436651085 0.3 0  2.173061204949961 0.3 0  2.145943251515011 0.3 0  2.118915272469994 0.3 0  2.091976978084957 0.3 0  2.065128060700849 0.3 0  2.038368218849433 0.3 0  2.01169717777258 0.3 0  1.985114624111908 0.3 0  1.958620267850966 0.3 0  1.93221382054972 0.3 0  1.905894991850698 0.3 0  1.879663489459713 0.3 0  1.853519019126419 0.3 0  1.827461291053897 0.3 0  1.801490031354372 0.3 0  1.775604937580312 0.3 0  1.74980572560258 0.3 0  1.724092118631866 0.3 0  1.698463829173586 0.3 0  1.672920575782554 0.3 0  1.647462076974085 0.3 0  1.622088043536933 0.3 0  1.5967981978949 0.3 0  1.571592267767068 0.3 0  1.546469970305736 0.3 0  1.521431023814044 0.3 0  1.496475156230927 0.3 0  1.471602093687753 0.3 0  1.446811560490646 0.3 0  1.422103279101731 0.3 0  1.397476971708191 0.3 0  1.37293238939876 0.3 0  1.348469231419202 0.3 0  1.324087248732772 0.3 0  1.299786165921677 0.3 0  1.275565710847046 0.3 0  1.251425617644257 0.3 0  1.227365618676339 0.3 0  1.203385446174014 0.3 0  1.179484853067473 0.3 0  1.155663548773374 0.3 0  1.131921292279077 0.3 0  1.108257802159295 0.3 0  1.084672829009693 0.3 0  1.061166115303374 0.3 0  1.037737392995421 0.3 0  1.01438640299116 0.3 0  0.991112899770314 0.3 0  0.9679166155523955 0.3 0  0.944797284182564 0.3 0  0.921754678526042 0.3 0  0.8987885143602501 0.3 0  0.8758985548820624 0.3 0  0.8530845484099929 0.3 0  0.8303462351786988 0.3 0  0.8076833651172373 0.3 0  0.7850956864865304 0.3 0  0.7625829601354557 0.3 0  0.7401449314598274 0.3 0  0.717781337993959 0.3 0  0.6954919649675473 0.3 0  0.6732765357561226 0.3 0  0.6511348120768439 0.3 0  0.6290665642016573 0.3 0  0.6070715355430467 0.3 0  0.5851494825775325 0.3 0  0.5633001690203812 0.3 0  0.5415233562273221 0.3 0  0.5198187909431873 0.3 0  0.4981862401387795 0.3 0  0.4766254686134248 0.3 0  0.4551362360485234 0.3 0  0.4337182975262159 0.3 0  0.4123714223228037 0.3 0  0.3910953802377493 0.3 0  0.3698899313205595 0.3 0  0.3487548463710963 0.3 0  0.3276898864081783 0.3 0  0.3066948129116018 0.3 0  0.2857694003037476 0.3 0  0.2649134227095047 0.3 0  0.2441266417321288 0.3 0  0.2234088223399122 0.3 0  0.2027597568977288 0.3 0  0.1821792020676698 0.3 0  0.1616669305402443 0.3 0  0.1412227158799362 0.3 0  0.12084633013886 0.3 0  0.1005375673448281 0.3 0  0.08029618164595353 0.3 0  0.06012194778526769 0.3 0  0.04001466495039718 0.3 0  0.01997408913631205 0.3 0  0 0.2800000000000553 0  0 0.2600000000001105 0  0 0.2400000000001658 0  0 0.2200000000002211 0  0 0.2000000000002764 0  0 0.1800000000002244 0  0 0.1600000000001691 0  0 0.140000000000115 0  0 0.1200000000000564 0  1.133778471000506 0.01219539743990768 0  1.003741919047894 0.09354664821474232 0  0.9559421147150347 0.1035858189992458 0  0.9313792160389045 0.1037365237938103 0  0.9788461538460573 0.1033060829993555 0  0.9090102438250753 0.1037269304984056 0  0.8846304212778655 0.1043349840723655 0  0.8581503885465881 0.104741932962923 0  0.8286416220145676 0.1052762843984476 0  0.7982741772533339 0.1053575624517407 0  0.7708789559342691 0.1060290465840416 0  0.741870349714261 0.1078220590984258 0  0.7112469360040695 0.10685702926368 0  0.6783901541417233 0.1079959711853378 0  0.642884733623195 0.1075561996086514 0  0.6056235042367955 0.1085956039602543 0  0.5647007593786924 0.1083187281660325 0  1.1953125 0.01353164693413185 0  1.258148737344733 0.01268350115427042 0  1.320087046516829 0.01426312402966312 0  1.383495130751951 0.01432665475473204 0  1.4453125 0.01315663539200989 0  1.50886768312388 0.01395488397722681 0  0.9942307692307371 0.103330866937657 0  1.119309781943483 0.2802014914557878 0  1.572831235329714 0.01707210522554785 0  1.637611634353954 0.01209340368483431 0  1.709661292005932 0.0146870244871893 0  1.006561890631532 0.07068055446055937 0  1.784793444007901 0.01499371444634687 0  1.855459587353174 0.0
[...]
<PointData  Scalars="pressure"> 
<DataArray  type="Float64"  Name="pressure"  format="ascii">7.1652144663064188e-01  7.6243010477136455e-02  3.4103720611508370e-01  5.3776876653461814e-01  4.8222269919945066e-01  0.0000000000000000e+00  0.0000000000000000e+00  7.1662853526332493e-01  7.1059882319039402e-01  7.0477356053398243e-01  6.9904371240311847e-01  6.9340753545146983e-01  6.8786310334056555e-01  6.8240892429507360e-01  6.7704314451570990e-01  6.7176397587468184e-01  6.6657004299521683e-01  6.6145903835764397e-01  6.5642944562954675e-01  6.5147977760782949e-01  6.4660788625641974e-01  6.4181227401597629e-01  6.3709078577288925e-01  6.3244187005068753e-01  6.2786319965978343e-01  6.2335335279406190e-01  6.1890985965764556e-01  6.1453126628836685e-01  6.1021456479548442e-01  6.0595844093152496e-01  6.0176181700724329e-01  5.9762002857352792e-01  5.9353227320076174e-01  5.8949568351649773e-01  5.8550881988424108e-01  5.8156771008039232e-01  5.7767146351154497e-01  5.7381576729465866e-01  5.6999984041276497e-01  5.6622074162564429e-01  5.6247355800658416e-01  5.5875685673441744e-01  5.5506836890877376e-01  5.5140438200598207e-01  5.4776096970973998e-01  5.4413643711238113e-01  5.4052622619273172e-01  5.3692813819608842e-01  5.3333717734276409e-01  5.2975048663504065e-01  5.2616494775108846e-01  5.2257644939377024e-01  5.1898013806772136e-01  5.1537377400875106e-01  5.1175123300462122e-01  5.0810963595091074e-01  5.0444458863068242e-01  5.0074765217154926e-01  4.9702243615559477e-01  4.9325270187801856e-01  4.8944193707263417e-01  4.8558518323393268e-01  4.8167262455375603e-01  4.7769871948058867e-01  4.7366093160506817e-01  4.6954073833108645e-01  4.6535330229448929e-01  4.6107843029067286e-01  4.5670392924508768e-01  4.5223198430606487e-01  4.4764212670366210e-01  4.4294506073291834e-01  4.3811905910211724e-01  4.3314869794274524e-01  4.2803144702209972e-01  4.2275335859116431e-01  4.1730206687473315e-01  4.1166132996593668e-01  4.0582109316109366e-01  3.9976005079022486e-01  3.9347230116822784e-01  3.8692968352709634e-01  3.8010273504216452e-01  3.7297814051802741e-01  3.6553041859072244e-01  3.5771791104758849e-01  3.4952129752294386e-01  3.4089943895915875e-01  3.3180545757776908e-01  3.2215815115028068e-01  3.1194134464121231e-01  3.0106576587051748e-01  2.8945451556914797e-01  2.7697314991346283e-01  2.6351880691798274e-01  2.4895129227216334e-01  2.3293832071748347e-01  2.1532149520292654e-01  1.9575306556275146e-01  1.7360419020838572e-01  1.4823931649405045e-01  1.1908134476042237e-01  7.6365738662948948e-02  -6.9380015908230785e-02  -1.3691234898843754e-01  -1.2012309598489143e-01  -5.8570575769596248e-02  3.3096249923090917e-02  1.3490055831399822e-01  2.4140996865904302e-01  3.4159084543936036e-01  4.3537412510715673e-01  5.1474763538314838e-01  5.6582195074203445e-01  6.3844828186842262e-01  3.1708481838277597e-01  4.3514777412232453e-01  4.6495049925106174e-01  4.8678890773164063e-01  5.0050418366533656e-01  5.1080478414986630e-01  5.1955347971420318e-01  5.2725406946392772e-01  5.3390888003823311e-01  5.3838773914745774e-01  5.3909795691021656e-01  5.3616194015987795e-01  5.3682521931942495e-01  5.4107553475990289e-01  5.4971257537886598e-01  5.6360930154315625e-01  5.8288601883304003e-01  6.0663157208048535e-01  6.3306604547842416e-01  6.5897247795140990e-01  6.8148972887889081e-01  6.9856204001278321e-01  7.0903406256499246e-01  7.1286708641011209e-01  7.1071502298730371e-01  7.0365860226110899e-01  6.9273561047839272e-01  6.7929436757784700e-01  6.6428092499032965e-01  6.4864072495422542e-01  6.3298904851076410e-01  6.1751589554813169e-01  6.0293559962166565e-01  5.8895843846280116e-01  5.7589267049031434e-01  5.6356388735391949e-01  5.5187310564334402e-01  5.4035850442230637e-01  5.2899053649896477e-01  5.1737777781891070e-01  5.0553820590377985e-01  4.9364020615842591e-01  4.7192938872586038e-01  4.6391304483277296e-01  4.5908013363928413e-01  4.5811944555300982e-01  4.6091537596496868e-01  4.6672125799097669e-01  4.7473303325158156e-01  4.8306282831749925e-01  4.9074175101458228e-01  4.9626349721095903e-01  4.9886683351289113e-01  4.9828540013917111e-01  4.9458172572049486e-01  4.8819745131474024e-01  4.7965504290795469e-01  4.6951252048366648e-01  4.5834249123815768e-01  4.4652126185752194e-01  4.3402982489234138e-01  4.2172036749182340e-01  4.0907078929006541e-01  3.9649075094929526e-01  3.8381042668654719e-01  3.7061306444955117e-01  3.5665937247585022e-01  3.4153867041782193e-01  3.2584995481922036e-01  3.0947469664822225e-01  2.9364439258582797e-01  2.7972534920434172e-01  2.6889971099875121e-01  2.6240706891873405e-01  2.6085846940017388e-01  2.6411172344960809e-01  2.7128738903244431e-01  2.8075132663933511e-01  2.9073106744251415e-01  2.9943769707638995e-01  3.0557508926734717e-01  3.0833867168277018e-01  3.0749580656331410e-01  3.0324288114216064e-01  2.9603989383021911e-01  2.8646175180119982e-01  2.7507509033176231e-01  2.6241766385209053e-01  2.4883601480153045e-01  2.3467719696558814e-01  2.2031011218791069e-01  2.0573686109240646e-01  1.9056482435155575e-01  1.7488491457974847e-01  1.5742284154839517e-01  1.3882637260097877e-01  1.1899430071060089e-01  9.8505027968980766e-02  8.0319414032288775e-02  6.5022135926664865e-02  5.4608502220378746e-02  4.9341340663442410e-02  4.8634118640709621e-02  5.0600836110638370e-02  5.2583762863219356e-02  5.2325636853915967e-02  4.7410689009563078e-02  3.7516554934733076e-02  2.1268735575796865e-02  0.0000000000000000e+00  0.0000000000000000e+00  0.0000000000000000e+00  0.0000000000000000e+00  0.0000000000000000e+00  0.0000000000000000e+00  0.0000000000000000e+00  0.0000000000000000e+00  0.0000000000000000e+00  7.9140988574765234e-03  1.8982349613377796e-02  3.3338767245309417e-02  4.9428723918178548e-02  6.6532303956935546e-02  8.3841273664084295e-02  1.0096739905363539e-01  1.1757959041878695e-01  1.3323720122333974e-01  1.4735189761127204e-01  1.5922282985094194e-01  1.6822922129211690e-01  1.7405052913846361e-01  1.7686678680249571e-01  1.7746584257967749e-01  1.7714733934509375e-01  1.7753264783255213e-01  1.8026377284151246e-01  1.8656379798831899e-01  1.9692762056126037e-01  2.1094902111421543e-01  2.2746050965946660e-01  2.4499669760407522e-01  2.6232813562377200e-01  2.7892671889214538e-01  2.9476805296504865e-01  3.1028546395101519e-01  3.2607874153691868e-01  3.4228736031675017e-01  3.5869345231328353e-01  3.7450063180379717e-01  3.8849015945193294e-01  3.9926359013033796e-01  4.0538668699301905e-01  4.0475032901184443e-01  3.9827357868650498e-01  3.8591226020659619e-01  3.7034889404644572e-01  3.5443639811132738e-01  3.4104162051623405e-01  3.3335833001965559e-01  3.3362432445937379e-01  3.4233379907403250e-01  3.5946752051835323e-01  3.8339010695452713e-01  4.1162651396810401e-01  4.4109504647384867e-01  4.6927078704252528e-01  4.9465434701836819e-01  5.1595043739816504e-01  5.3235387788967392e-01  5.4342111917874258e-01  5.4880815495775981e-01  5.4832875191520358e-01  5.4160423905297828e-01  5.2936970899056790e-01  5.1269919914304196e-01  4.9342452470396975e-01  4.7373306201786824e-01  4.5610554223779193e-01  4.4259726532525573e-01  4.3487794031116767e-01  4.3329970285790648e-01  4.3719766262200366e-01  4.4545896623323283e-01  4.5636929377407720e-01  4.6851163081691405e-01  4.8035159291399615e-01  4.9105527831974521e-01  5.0015028685498586e-01  5.0749949717935938e-01  5.1342540354795363e-01  5.1798267961238187e-01  5.2133106818147312e-01  5.2334972469259033e-01  5.2417146062489384e-01  5.2369284305586827e-01  5.2237130909768681e-01  5.2028318186230849e-01  5.1789943603041277e-01  5.1579152263274952e-01  5.1413297476250253e-01  5.1310092701650678e-01  5.1278661449764185e-01  5.1336799286210144e-01  5.1479455267043606e-01  5.1694252477128022e-01  5.1974140244014733e-01  5.2322859189150328e-01  5.2716901936074057e-01  5.3157801468247978e-01  5.3633156137048177e-01  5.4138339206194142e-01  5.4669869682266936e-01  5.5222622361844775e-01  5.5790816798312881e-01  5.6372295987202437e-01  5.6965025041740747e-01  5.7565950172316571e-01  5.8172608381193114e-01  5.8783685529904739e-01  5.9399113268005088e-01  6.0016685860871566e-01  6.0636043164371378e-01  6.1256216690818799e-01  6.1876952922622908e-01  6.2497816467648148e-01  6.3117922265299220e-01  6.3737713409423480e-01  6.4356252776964862e-01  6.4973825422782017e-01  6.5590097622336863e-01  6.6204855639437687e-01  6.6818190269168476e-01  6.7429887420426193e-01  6.8039919552342987e-01  6.8648237094373554e-01  6.9254795932878499e-01  6.9859568328682897e-01  7.0462525067934068e-01  7.1063630263507549e-01  7.1662824424330129e-01  7.1662386651433674e-01  7.1661288750045493e-01  7.1659581055312127e-01  7.1657501464926576e-01  7.1655425156124741e-01  7.1653711160473121e-01  7.1652621608931055e-01  7.1652182036368051e-01  6.4544214222362994e-01  4.2458277281048779e-01  -1.1101035501449712e-01  1.8038863732528709e-01  3.0103069378536512e-01  2.6812001905130534e-01  3.2560601760810448e-01  3.6830211453966943e-01  4.0281054222607082e-01  4.2991977632102241e-01  4.4964584554565057e-01  4.6724885726702897e-01  4.8340005620635573e-01  4.9862217691595628e-01  5.1344192175481618e-01  5.2767897567343414e-01  5.4228007450657545e-01  7.0868354888312735e-01  6.8444527328958626e-01  6.2529223844789872e-01  5.6984588082698306e-01  5.2423597457869886e-01  4.7725686214419705e-01  5.6330245252268873e-01  5.0482905967796232e-01  4.5745869155866548e-01  4.8443183220737801e-01  4.9655355415323688e-01  5.0493607615754188e-01  4.6387433123808813e-01  4.1791129792440623e-01  5.5675308054370576e-01  3.6469643591258150e-01  4.6374135405375344e-01  4.3264001516046435e-01  3.0001695868075701e-01  4.8174114042295241e-01  5.7209986140032432e-01  5.4819303289314403e-01  2.6056617540644622e-01  5.8679705589549880e-01  5.7314401482734545e-01  2.8415950159648512e-01  4.8414289077724637e-01  5.2034512403049982e-01  6.0337892001450111e-01  3.0747862682846155e-01  3.3586029300635561e-01  6.2142465425053106e-01  3.4386300558583660e-01  2.8117256217858821e-01  3.9116818023334365e-01  5.2516053639490534e-01  2.2635245081981875e-01  6.3944764152196809e-01  4.0203626069680554e-01  5.1850772891791086e-01  5.1371842464130246e-01  3.6661197751176633e-01  1.6769814248154258e-01  6.5944143198222227e-01  6.7428447226235155e-01  3.9894057543803502e-01  1.0990080418095888e-01  5.7476281215307026e-02  5.1855480123647213e-01  3.1793118704232137e-01  2.5353908072439812e-01  5.2971219332452446e-01  9.4185743487544910e-02  -6.9391335902049033e-03  5.4399296337824699e-01  2.0351436345313240e-01  4.7505082091445015e-02  5.6592381609941245e-01  1.7560310027024145e-01  5.9692148372963016e-01  1.7480816027581775e-01  6.2808394479904384e-01  1.5408455528724418e-01  6.4655254455296218e-01  6.8331117333372682e-01  6.6526174018973472e-01  1.1027856730856467e-01  7.1152255659999175e-01  5.5933422477828336e-03  6.9082449730667883e-01  5.2972012678926406e-01  6.0282716331443227e-02  4.9163034081571869e-02  4.8028578974176717e-01  5.4586896016408104e-01  5.2532806145959887e-01  4.8710476260728602e-01  5.1456355943703624e-01  5.5516822853862158e-01  5.7842520011654608e-01  6.1019497326858063e-01  5.3856943905830612e-01  5.1998833864947791e-01  4.4847890681636066e-01  4.4168473548113329e-01  6.4904094786067834e-01  6.3022924416464199e-01  2.8739810053827786e-01  1.8194593338557399e-01  6.1283638403895035e-01  1.9948912139630803e-01  6.9547557834738405e-01  2.5548691433682008e-01  2.9966018473199663e-01  5.9524850047606603e-01  3.0151236400868342e-01  7.1152810337424521e-01  2.6580454103790624e-01  5.7969936519430065e-01  2.7611645061960255e-01  3.3322130969003189e-01  4.6118767412650058e-01  3.9224849253967070e-01  5.6417050265960156e-01  4.4174168257354024e-01  4.8476613382647654e-01  4.9667725373419408e-01  5.4940781842417252e-01  4.6898374383288077e-01  1.3882317750155280e-02  5.3506189328789611e-01  5.2063067354258374e-01  5.0581457050078971e-01  4.9158798296606993e-01  4.7514762462585902e-01  4.5856455099341797e-01  4.3962952200395156e-01  4.1391077681593186e-01  6.8855315341447321e-01  3.8272612993493027e-01  3.4370028093808569e-01  2.9343222216942810e-01  7.0526422202654393e-01  2.2389175033761036e-01  5.9672225960387615e-01  6.5441647299992689e-01  5.4861506148430339e-01  5.0079874475702213e-01  7.1188580425770787e-01  4.8089974016384363e-01  3.9853442308337341e-03  7.0186968368869984e-01  2.5903353929845104e-02  5.3808626217128674e-01  1.8228642637676231e-02  7.1210356339968806e-01  5.4046928463364896e-01  5.4067669529852780e-01  5.4559372951711838e-01  5.3745592804405051e-01  5.4273520726331881e-01  5.3416326346246279e-01  5.4164961752149166e-01  5.3337288987214160e-01  5.4332162566092901e-01  5.3602915269724705e-01  5.4815648723372257e-01  5.4052377451174949e-01  5.5403705617144705e-01  5.4432976958400558e-01  5.5751934852132479e-01  5.4574247788784080e-01  5.5725180080975589e-01  5.4390603464430476e-01  5.5276053208405540e-01  5.3922203412050318e-01  5.4490477541674631e-01  5.3081347898973574e-01  5.6330814105807492e-01  5.4868111445743306e-01  5.2809569545981794e-01  5.2011515698827016e-01  5.6824009566891764e-01  5.4963970107515292e-01  5.7146179593090030e-01  5.4736621910349881e-01  5.7202757499299128e-01  5.4280140200897575e-01  5.6891680605042461e-01  5.3605575416585283e-01  5.6247773311736171e-01  5.2009072894927055e-01  5.5044536148715328e-01  5.1257562291146264e-01  5.3970274141942198e-01  5.0126449009565677e-01  5.2808558864813049e-01  4.8421813935317298e-01  5.1587220547225743e-01  4.7964679155481377e-01  5.0714117524060653e-01  4.7237203161112051e-01  4.9987163568398313e-01  4.6792159856897908e-01  4.9545370316816328e-01  4.6713223035589529e-01  4.9178644307541586e-01  5.1958415982096062e-01  5.1232176952038444e-01  4.7071192101062426e-01  4.9691086429247305e-01  4.7750870496774961e-01  4.9760372398896835e-01  4.8578495899613572e-01  5.0225019231552026e-01  4.9553543236499187e-01  5.0714491280884955e-01  5.0595604961695528e-01  5.1206671918633528e-01  5.3243998132849601e-01  5.1584009933404784e-01  5.1631914772643184e-01  5.2457184350298047e-01  5.1972169222146358e-01  5.3187282101330002e-01  5.2227243017648239e-01  5.1424684134302123e-01  5.0714935934909511e-01  5.3261322917639065e-01  5.3723262286914542e-01  5.2393932962213785e-01  5.0846147791550123e-01  5.3996075207982008e-01  5.2441259362986525e-01  5.4044026652527166e-01  5.2347034043080309e-01  5.3733081253570614e-01  5.1992355230955523e-01  5.1841989006044020e-01  5.3089352037962523e-01  5.1297746349450946e-01  5.1846696587590013e-01  5.0107425251001270e-01  5.0137858535231605e-01  4.8460788715888004e-01  5.7021782113483988e-01  4.8268370290183715e-01  4.7963018985346534e-01  4.6374257733259450e-01  5.1203582933741809e-01  5.0336409474298927e-01  5.1563411363306921e-01  4.4937313085763714e-01  4.5441615952745179e-01  4.3950278265320786e-01  4.2619172029665980e-01  4.1398585022316409e-01  3.9751301908126363e-01  3.8955788298998617e-01  5.0670976021291259e-01  4.5265490410204390e-01  5.0331433314491791e-01  5.1220759043812880e-01  3.7106062261500328e-01  3.6731227861355470e-01  3.9026455349221501e-01  3.7237687903345029e-01  3.4918129168021866e-01  3.5807579520536581e-01  3.3607737542840843e-01  3.4774323695138237e-01  3.2811815967111629e-01  3.4136102166794707e-01  3.2532307769371904e-01  3.3942338554245460e-01  3.2717537607951508e-01  3.4022838442134856e-01  3.3234787769278512e-01  3.4289704980446545e-01  3.3947155820557018e-01  3.4516780330942193e-01  3.4668865800491733e-01  3.4514903566352118e-01  3.5173699983212231e-01  3.4164180631102131e-01  3.5427266089338066e-01  3.3480336673053435e-01  5.1300979357992527e-01  4.4799285761268320e-01  3.5300631418144934e-01  3.2558316400386428e-01  3.4810614187071043e-01  3.1667331468097432e-01  6.0067464420369032e-01  3.4170664653927257e-01  3.0869919689390174e-01  5.3647460694762494e-01  5.7069059609558048e-01  5.1233982266233669e-01  5.0809836426162935e-01  4.9257795084650441e-01  4.9531500187376892e-01  4.7703652146543640e-01  4.8020927679647424e-01  4.5781406135357472e-01  4.6312826930890205e-01  4.3498947363809265e-01  4.4450153162105893e-01  4.1080244414913347e-01  4.2680497557631164e-01  3.8743328183435338e-01  4.0941783781653640e-01  3.6115226195071543e-01  3.9116436372762864e-01  3.5291651766259191e-01  3.8647647763764109e-01  3.4708077799907561e-01  3.7568556595908870e-01  3.4541945844908245e-01  3.7420981527900954e-01  3.4867905638408442e-01  3.7611689647054175e-01  3.5502248593438612e-01  3.8030184281778118e-01  3.6291208840671441e-01  3.8583826550359507e-01  4.0261677737919083e-01  4.0435933068426400e-01  4.0795109106507377e-01  3.9221290415471999e-01  4.1216426201980405e-01  3.9919910253136931e-01  4.1703160507108783e-01  4.0628689701987930e-01  4.2223315963397817e-01  4.3040792800031774e-01  4.1097197796008722e-01  4.2753136311788670e-01  4.2018639138808034e-01  4.3347097908313242e-01  4.4225970715967072e-01  4.4660645659983439e-01  4.3927446009194104e-01  4.5104387836641702e-01  4.4549675848994541e-01  4.5582205629758638e-01  4.5883845850762101e-01  4.5153671207723978e-01  4.6060016823721461e-01  4.6652565329879597e-01  4.7023461253701587e-01  4.6521515250420609e-01  4.7410059014437544e-01  4.6990882284055546e-01  4.7813431437947368e-01  3.4283455798551365e-01  4.2504181942868552e-01  4.0309578559562276e-01  3.1585310438657316e-01  4.7416945068314287e-01  4.8221653337523157e-01  4.8629383193189246e-01  4.8987096380635720e-01  4.8649406728707367e-01  4.9356651234645299e-01  4.9090002125077764e-01  4.9746789001530312e-01  5.0048664214331118e-01  5.0380315159569811e-01  5.0147024751293234e-01  5.0739305016984237e-01  4.5605465505483039e-01  5.0561187539189745e-01  5.1112165112056440e-01  3.1843566324706352e-01  4.7421936350044180e-01  4.7672493312026476e-01  3.3904566541503300e-01  5.0977682848597117e-01  5.1510782823674872e-01  5.1637973917798685e-01  5.2036771922245806e-01  5.1903372536093806e-01  5.2420448928846242e-01  5.2563912790398881e-01  5.2924354995394629e-01  5.2813859509685068e-01  5.3296752668799652e-01  3.8985102465976024e-01  5.3215745978519235e-01  5.3687263708032307e-01  5.0703453863640058e-01  4.3669154214511308e-01  4.8019823863616451e-01  4.0764996719039165e-01  5.3771657162645758e-01  5.4148512518935021e-01  5.4086752716562492e-01  5.4534809749120561e-01  3.3658505865529553e-01  3.0459959837688222e-01  3.3152347952381728e-01  3.0276231454468183e-01  3.2667441744242798e-01  3.0296439224495769e-01  5.4510065675020036e-01  5.4940780704243064e-01  5.4326014483955298e-01  5.4978716855675369e-01  5.5372663403994060e-01  5.5339561259633885e-01  5.5771802733213016e-01  5.2712858468776591e-01  5.0834137806334623e-01  4.6158290709178729e-01  3.5687127510351946e-01  3.2168495713379225e-01  3.0333261178427740e-01  3.9979605660814960e-01  3.2614100267569968e-01  2.8558646850271374e-01  2.9109531998376970e-01  3.0249005246261645e-01  2.9446593460575249e-01  2.9936141711825159e-01  2.9467057959131154e-01  2.9378692441171833e-01  2.9140032815419459e-01  2.8585521286075349e-01  2.8490597809959878e-01  2.7577418553009148e-01  2.7551818219351759e-01  2.6384351793795957e-01  2.6417978105003243e-01  2.5045185226413663e-01  2.5147317456740703e-01  2.3643127891730073e-01  2.3815167963737877e-01  2.2228388417203157e-01  2.2483984355357731e-01  2.0855669058208304e-01  2.1231631542277590e-01  1.9656366305362011e-01  2.0095505911523218e-01  5.5756669441501572e-01  5.6181673061648618e-01  5.6219351907700055e-01  5.6610069758077164e-01  5.6603069981373566e-01  5.7022281420734178e-01  1.8694427318565926e-01  1.9115467721141183e-01  1.7990468701921458e-01  1.8229208789717605e-01  1.7269495433914134e-01  1.7350389636575483e-01  2.7829320963428056e-01  5.7005280449514861e-01  5.7444467630569274e-01  5.7462981760990806e-01  5.7881434623359640e-01  4.8458530218738560e-01  4.8922570226792617e-01  5.7875273999316090e-01  5.8303828804302837e-01  5.8304630193778906e-01  5.8731890120057795e-01  5.8739895705347644e-01  5.9164881242849121e-01  5.915