<?xml version="1.0"?>
<VTKFile type="UnstructuredGrid"  version="0.1"  >
<UnstructuredGrid>
<Piece  NumberOfPoints="2945" NumberOfCells="5525">
<Points>
<DataArray  type="Float64"  NumberOfComponents="3"  format="ascii">0 0.1 0  0.95 0.1 0  1 0.1 0  1 0 0  1.5 0 0  3 0 0  3 0.3 0  0 0.3 0  0.0197424558707114 0.1 0  0.03915669042224804 0.1 0  0.05824816022699029 0.1 0  0.07702223050332387 0.1 0  0.09548417327144595 0.1 0  0.1136391897583987 0.1 0  0.1314923700144587 0.1 0  0.1490487330862866 0.1 0  0.1663132263225292 0.1 0  0.1832906857273058 0.1 0  0.1999858946008978 0.1 0  0.216403545770297 0.1 0  0.2325482404045023 0.1 0  0.2484245348165176 0.1 0  0.2640368740372501 0.1 0  0.2793896589642241 0.1 0  0.2944872056237027 0.1 0  0.3093337469555254 0.1 0  0.3239334613687816 0.1 0  0.3382904528528069 0.1 0  0.3524087553122972 0.1 0  0.3662923366391824 0.1 0  0.3799451014768399 0.1 0  0.393370886920506 0.1 0  0.4065734648871676 0.1 0  0.419556546320114 0.1 0  0.4323237821343415 0.1 0  0.4448787573056132 0.1 0  0.4572250047274954 0.1 0  0.4693659926332938 0.1 0  0.4813051343276231 0.1 0  0.4930457849308193 0.1 0  0.5045912455271677 0.1 0  0.5159447600209797 0.1 0  0.5271095174127136 0.1 0  0.5380886618453393 0.1 0  0.5488852725463512 0.1 0  0.5595023868312478 0.1 0  0.5699429904313016 0.1 0  0.5802100167387366 0.1 0  0.5903063508274641 0.1 0  0.6002348329443006 0.1 0  0.6099982499579832 0.1 0  0.6195993483501782 0.1 0  0.6290408246013842 0.1 0  0.6383253354321616 0.1 0  0.6474554910757137 0.1 0  0.6564338522440513 0.1 0  0.6652629482939147 0.1 0  0.6739452579188948 0.1 0  0.6824832240165607 0.1 0  0.6908792415022103 0.1 0  0.6991356755989045 0.1 0  0.7072548438546967 0.1 0  0.7152390281534421 0.1 0  0.7230904746196039 0.1 0  0.7308113906759266 0.1 0  0.7384039435269326 0.1 0  0.7458702676581656 0.1 0  0.7532124631720397 0.1 0  0.7604325921167397 0.1 0  0.7675326856666862 0.1 0  0.7745147374421916 0.1 0  0.7813807123989068 0.1 0  0.7881325374362798 0.1 0  0.7947721131625659 0.1 0  0.8013013031866276 0.1 0  0.8077219449067021 0.1 0  0.8140358419942376 0.1 0  0.8202447685401882 0.1 0  0.8263504700910924 0.1 0  0.8323546643163114 0.1 0  0.8382590362474568 0.1 0  0.8440652473522128 0.1 0  0.8497749272799842 0.1 0  0.8553896837646281 0.1 0  0.8609110933285474 0.1 0  0.866340708855119 0.1 0  0.8716800550492284 0.1 0  0.8769306339052932 0.1 0  0.8820939206038667 0.1 0  0.8871713655604893 0.1 0  0.8921643975475726 0.1 0  0.8970744196575535 0.1 0  0.9019028106970642 0.1 0  0.9066509291259979 0.1 0  0.9113201098984042 0.1 0  0.9159116634553873 0.1 0  0.9204268818729691 0.1 0  0.9248670319440222 0.1 0  0.9292333656649013 0.1 0  0.9335271075812669 0.1 0  0.9377494640511216 0.1 0  0.941901623463222 0.1 0  0.9459847526686701 0.1 0  0.9538461538461205 0.1 0  0.9576923076922409 0.1 0  0.9615384615384381 0.1 0  0.9653846153846337 0.1 0  0.9692307692307542 0.1 0  0.9730769230768747 0.1 0  0.9769230769229952 0.1 0  0.9807692307691157 0.1 0  0.9846153846152361 0.1 0  0.9884615384614317 0.1 0  0.9923076923076356 0.1 0  0.9961538461538395 0.1 0  1 0.09591793123533533 0  1 0.09133596463859224 0  1 0.08619288104391448 0  1 0.08041996484521211 0  1 0.07394008421771697 0  1 0.06666666567302955 0  1 0.05850252932209174 0  1 0.04933859630113544 0  1 0.03905242821848202 0  1 0.02750659386753798 0  1 0.01454683679239736 0  1.015625 0 0  1.03125 0 0  1.046875 0 0  1.0625 0 0  1.078125 0 0  1.09375 0 0  1.109375 0 0  1.125 0 0  1.140625 0 0  1.15625 0 0  1.171875 0 0  1.1875 0 0  1.203125 0 0  1.21875 0 0  1.234375 0 0  1.25 0 0  1.265625 0 0  1.28125 0 0  1.296875 0 0  1.3125 0 0  1.328125 0 0  1.34375 0 0  1.359375 0 0  1.375 0 0  1.390625 0 0  1.40625 0 0  1.421875 0 0  1.4375 0 0  1.453125 0 0  1.46875 0 0  1.484375 0 0  1.515920751924515 0 0  1.531989369316721 0 0  1.54820720925872 0 0  1.564575665560501 0 0  1.581096138674279 0 0  1.597770029901263 0 0  1.614598783332311 0 0  1.631583831055205 0 0  1.64872661129721 0 0  1.666028606716533 0 0  1.683491276608443 0 0  1.701116134125304 0 0  1.718904673324128 0 0  1.736858414799339 0 0  1.754978895814663 0 0  1.773267661782904 0 0  1.791726281103402 0 0  1.810356325314689 0 0  1.8291593848892 0 0  1.848137076690385 0 0  1.867291007717254 0 0  1.886622833871288 0 0  1.90613418642363 0 0  1.925826753299799 0 0  1.945702199101513 0 0  1.96576223584749 0 0  1.986008569283268 0 0  2.006442931928877 0 0  2.02706707547783 0 0  2.047882750887917 0 0  2.06889175187935 0 0  2.090095860038271 0 0  2.111496891648636 0 0  2.133096679109554 0 0  2.154897066851056 0 0  2.176899916687499 0 0  2.199107102752146 0 0  2.22152053937028 0 0  2.244142122958061 0 0  2.266973806444078 0 0  2.290017523268154 0 0  2.313275249499252 0 0  2.336748971745516 0 0  2.360440702338606 0 0  2.384352453384031 0 0  2.408486280477412 0 0  2.432844240041185 0 0  2.457428414757088 0 0  2.482240901796653 0 0  2.507283830121838 0 0  2.532559332080812 0 0  2.558069568787417 0 0  2.583816724966441 0 0  2.60980299606584 0 0  2.636030600971886 0 0  2.662501790984011 0 0  2.689218818279327 0 0  2.716183964547616 0 0  2.743399548861297 0 0  2.77086788244719 0 0  2.798591312896326 0 0  2.826572223178268 0 0  2.854812990138617 0 0  2.883316031690714 0 0  2.912083780657189 0 0  2.941118704633482 0 0  2.970423276998917 0 0  3 0.02999999999994495 0  3 0.05999999999987042 0  3 0.089999999999783 0  3 0.119999999999701 0  3 0.149999999999619 0  3 0.179999999999692 0  3 0.2099999999997737 0  3 0.2399999999998511 0  3 0.2699999999999185 0  2.970138294777171 0.3 0  2.940375666438236 0.3 0  2.910711782853056 0.3 0  2.881146331305122 0.3 0  2.851678975030285 0.3 0  2.822309388626621 0.3 0  2.793037250095074 0.3 0  2.76386223529133 0.3 0  2.734784017903872 0.3 0  2.705802289276642 0.3 0  2.676916713794697 0.3 0  2.648126987654635 0.3 0  2.619432780406184 0.3 0  2.590833779385199 0.3 0  2.562329669847737 0.3 0  2.533920134950189 0.3 0  2.505604855727852 0.3 0  2.477383539822502 0.3 0  2.449255847639465 0.3 0  2.421221492569094 0.3 0  2.393280152486815 0.3 0  2.36543151914496 0.3 0  2.337675285481809 0.3 0  2.310011142385583 0.3 0  2.282438797441587 0.3 0  2.254957931061538 0.3 0  2.227568248063605 0.3 0  2.200269436651085 0.3 0  2.173061204949961 0.3 0  2.145943251515011 0.3 0  2.118915272469994 0.3 0  2.091976978084957 0.3 0  2.065128060700849 0.3 0  2.038368218849433 0.3 0  2.01169717777258 0.3 0  1.985114624111908 0.3 0  1.958620267850966 0.3 0  1.93221382054972 0.3 0  1.905894991850698 0.3 0  1.879663489459713 0.3 0  1.853519019126419 0.3 0  1.827461291053897 0.3 0  1.801490031354372 0.3 0  1.775604937580312 0.3 0  1.74980572560258 0.3 0  1.724092118631866 0.3 0  1.698463829173586 0.3 0  1.672920575782554 0.3 0  1.647462076974085 0.3 0  1.622088043536933 0.3 0  1.5967981978949 0.3 0  1.571592267767068 0.3 0  1.546469970305736 0.3 0  1.521431023814044 0.3 0  1.496475156230927 0.3 0  1.471602093687753 0.3 0  1.446811560490646 0.3 0  1.422103279101731 0.3 0  1.397476971708191 0.3 0  1.37293238939876 0.3 0  1.348469231419202 0.3 0  1.324087248732772 0.3 0  1.299786165921677 0.3 0  1.275565710847046 0.3 0  1.251425617644257 0.3 0  1.227365618676339 0.3 0  1.203385446174014 0.3 0  1.179484853067473 0.3 0  1.155663548773374 0.3 0  1.131921292279077 0.3 0  1.108257802159295 0.3 0  1.084672829009693 0.3 0  1.061166115303374 0.3 0  1.037737392995421 0.3 0  1.01438640299116 0.3 0  0.991112899770314 0.3 0  0.9679166155523955 0.3 0  0.944797284182564 0.3 0  0.921754678526042 0.3 0  0.8987885143602501 0.3 0  0.8758985548820624 0.3 0  0.8530845484099929 0.3 0  0.8303462351786988 0.3 0  0.8076833651172373 0.3 0  0.7850956864865304 0.3 0  0.7625829601354557 0.3 0  0.7401449314598274 0.3 0  0.717781337993959 0.3 0  0.6954919649675473 0.3 0  0.6732765357561226 0.3 0  0.6511348120768439 0.3 0  0.6290665642016573 0.3 0  0.6070715355430467 0.3 0  0.5851494825775325 0.3 0  0.5633001690203812 0.3 0  0.5415233562273221 0.3 0  0.5198187909431873 0.3 0  0.4981862401387795 0.3 0  0.4766254686134248 0.3 0  0.4551362360485234 0.3 0  0.4337182975262159 0.3 0  0.4123714223228037 0.3 0  0.3910953802377493 0.3 0  0.3698899313205595 0.3 0  0.3487548463710963 0.3 0  0.3276898864081783 0.3 0  0.3066948129116018 0.3 0  0.2857694003037476 0.3 0  0.2649134227095047 0.3 0  0.2441266417321288 0.3 0  0.2234088223399122 0.3 0  0.2027597568977288 0.3 0  0.1821792020676698 0.3 0  0.1616669305402443 0.3 0  0.1412227158799362 0.3 0  0.12084633013886 0.3 0  0.1005375673448281 0.3 0  0.08029618164595353 0.3 0  0.06012194778526769 0.3 0  0.04001466495039718 0.3 0  0.01997408913631205 0.3 0  0 0.2800000000000553 0  0 0.2600000000001105 0  0 0.2400000000001658 0  0 0.2200000000002211 0  0 0.2000000000002764 0  0 0.1800000000002244 0  0 0.1600000000001691 0  0 0.140000000000115 0  0 0.1200000000000564 0  1.133778471000506 0.01219539743990768 0  1.003741919047894 0.09354664821474232 0  0.9559421147150347 0.1035858189992458 0  0.9313792160389045 0.1037365237938103 0  0.9788461538460573 0.1033060829993555 0  0.9090102438250753 0.1037269304984056 0  0.8846304212778655 0.1043349840723655 0  0.8581503885465881 0.104741932962923 0  0.8286416220145676 0.1052762843984476 0  0.7982741772533339 0.1053575624517407 0  0.7708789559342691 0.1060290465840416 0  0.741870349714261 0.1078220590984258 0  0.7112469360040695 0.10685702926368 0  0.6783901541417233 0.1079959711853378 0  0.642884733623195 0.1075561996086514 0  0.6056235042367955 0.1085956039602543 0  0.5647007593786924 0.1083187281660325 0  1.1953125 0.01353164693413185 0  1.258148737344733 0.01268350115427042 0  1.320087046516829 0.01426312402966312 0  1.383495130751951 0.01432665475473204 0  1.4453125 0.01315663539200989 0  1.50886768312388 0.01395488397722681 0  0.9942307692307371 0.103330866937657 0  1.119309781943483 0.2802014914557878 0  1.572831235329714 0.01707210522554785 0  1.637611634353954 0.01209340368483431 0  1.709661292005932 0.0146870244871893 0  1.006561890631532 0.07068055446055937 0  1.784793444007901 0.01499371444634687 0  1.855459587353174 0.0
[...]
<PointData  Scalars="pressure"> 
<DataArray  type="Float64"  Name="pressure"  format="ascii">1.1404675074427836e-01  -2.1353193250370553e-01  -1.5596110463496501e-01  -1.0883866674436517e-01  -3.4973128470843370e-02  0.0000000000000000e+00  0.0000000000000000e+00  1.1406099779459337e-01  1.0812402658760652e-01  1.0229960600949337e-01  9.6571804623788685e-02  9.0938987084287257e-02  8.5399514964399667e-02  7.9951833726558619e-02  7.4594366952728530e-02  6.9325541144676969e-02  6.4143908843183814e-02  5.9047862129135660e-02  5.4035928562128577e-02  4.9106705115660544e-02  4.4258659204723771e-02  3.9490394371522915e-02  3.4800422999581034e-02  3.0187372521108608e-02  2.5649749195312682e-02  2.1186243714350437e-02  1.6795359170571709e-02  1.2475813175676188e-02  8.2260281459741978e-03  4.0447465188334780e-03  -6.9134085243652366e-05  -4.1175330328731300e-03  -8.1015153350989817e-03  -1.2022619146770571e-02  -1.5882022441605536e-02  -1.9681243509539145e-02  -2.3421773284071364e-02  -2.7104810976607829e-02  -3.0731964974720478e-02  -3.4304096784585965e-02  -3.7823496061074532e-02  -4.1291101090360466e-02  -4.4708318897975011e-02  -4.8076610921129102e-02  -5.1397622265955407e-02  -5.4672592243623454e-02  -5.7903130471553120e-02  -6.1090623049353907e-02  -6.4236794024451552e-02  -6.7342978685257418e-02  -7.0410734286184815e-02  -7.3441483175068600e-02  -7.6436977823224450e-02  -7.9398537540252348e-02  -8.2328081850544410e-02  -8.5226853695378427e-02  -8.8096576190399803e-02  -9.0939075453147208e-02  -9.3755733817899881e-02  -9.6547948166943079e-02  -9.9318595759832179e-02  -1.0206702816828891e-01  -1.0479665800180543e-01  -1.0750890255986291e-01  -1.1020483221362098e-01  -1.1288793406650142e-01  -1.1555804935545909e-01  -1.1821581722566626e-01  -1.2086551597573666e-01  -1.2350820276208012e-01  -1.2614637643671797e-01  -1.2877993822232622e-01  -1.3140977232242565e-01  -1.3404172185109334e-01  -1.3667504264986371e-01  -1.3931236391788585e-01  -1.4195557936931241e-01  -1.4460672741127042e-01  -1.4726748274774040e-01  -1.4994099977756170e-01  -1.5262822898421463e-01  -1.5533152320183344e-01  -1.5805529060319676e-01  -1.6080144422032217e-01  -1.6357153043492603e-01  -1.6637020760791277e-01  -1.6920082167474537e-01  -1.7206586439183849e-01  -1.7496861906648845e-01  -1.7791985179282271e-01  -1.8091824197196388e-01  -1.8397234077344676e-01  -1.8708625904347864e-01  -1.9028018438510358e-01  -1.9354271594419331e-01  -1.9682930384219754e-01  -2.0101014645236631e-01  -2.0029630366175799e-01  -2.2496414599122264e-01  -1.8932016320826070e-01  -2.1953915684317521e-01  -2.1831307868185884e-01  -2.2520436603009239e-01  -2.3745550371788490e-01  -2.5161222695754704e-01  -2.5556963584373349e-01  -2.5303389709423352e-01  -2.4497075596224219e-01  -2.3312609847008656e-01  -2.1865000965307854e-01  -2.0283103346115022e-01  -1.8658613499534035e-01  -1.7069932149333028e-01  -1.5747874260835726e-01  -1.3539125101878657e-01  -1.5488510536708783e-01  -1.3173370959722780e-01  -1.2476312894579140e-01  -1.1942469817395786e-01  -1.1588038997003994e-01  -1.1321795847248141e-01  -1.1115437254416996e-01  -1.0965297687039208e-01  -1.0869243308150436e-01  -1.0829893920382952e-01  -1.0853147778447585e-01  -1.0922471991053172e-01  -1.0936673331690071e-01  -1.0883311869304138e-01  -1.0776884748499646e-01  -1.0630211991023091e-01  -1.0455218898837011e-01  -1.0259313649572241e-01  -1.0048671028762014e-01  -9.8332776469123861e-02  -9.6206367990518904e-02  -9.4166093675107712e-02  -9.2257740919159059e-02  -9.0506827654423125e-02  -8.8923225678370271e-02  -8.7499209064759512e-02  -8.6198302777937136e-02  -8.4966915431675172e-02  -8.3756604115265976e-02  -8.2491025709262686e-02  -8.1037715211066827e-02  -7.9435580674131950e-02  -7.7463151544079456e-02  -7.5152012511742236e-02  -7.2406372473467442e-02  -6.9225501682183541e-02  -6.5499965682629738e-02  -6.1342801093228372e-02  -5.6719008946673352e-02  -5.1702478530140802e-02  -4.6350254094047603e-02  -4.0743401608599482e-02  -2.9017933578586307e-02  -2.3037827868644389e-02  -1.7110736665202523e-02  -1.1351717025273895e-02  -5.8016795313499073e-03  -5.5364664877740298e-04  4.3541004072077281e-03  8.8873396410876909e-03  1.2994759576223669e-02  1.6701618130717858e-02  2.0014706472517484e-02  2.2947370466356101e-02  2.5516818537813016e-02  2.7756266384088610e-02  2.9693707525979243e-02  3.1362015602404196e-02  3.2791477327763413e-02  3.4007075952474049e-02  3.5012712733095530e-02  3.5873154305238859e-02  3.6561357949425013e-02  3.7114181097616196e-02  3.7546910519483348e-02  3.7860217879545535e-02  3.8077918758022355e-02  3.8187912574390241e-02  3.8234565964635127e-02  3.8193280896044658e-02  3.8085704038011620e-02  3.7915493046800704e-02  3.7682538809295563e-02  3.7396598577241855e-02  3.7067087441257002e-02  3.6697761853160073e-02  3.6284895679792588e-02  3.5836745882724355e-02  3.5352212592501410e-02  3.4835609342541159e-02  3.4284881503313588e-02  3.3701487605741522e-02  3.3085352903907662e-02  3.2436456708860355e-02  3.1752826672249351e-02  3.1033791921362523e-02  3.0277620010111708e-02  2.9485699207996229e-02  2.8653228302567398e-02  2.7777737355108304e-02  2.6862811062117242e-02  2.5907418367787573e-02  2.4890461508352835e-02  2.3848901357675780e-02  2.2736372335845408e-02  2.1592583576137477e-02  2.0399405571651291e-02  1.9134531627169493e-02  1.7845370849087036e-02  1.6481241309950979e-02  1.5074859559062005e-02  1.3616489493361974e-02  1.2108920150858102e-02  1.0533924782742387e-02  8.9133163544548311e-03  7.2419417608593963e-03  5.5102715601414746e-03  3.7546454701580297e-03  1.9218789211961440e-03  0.0000000000000000e+00  0.0000000000000000e+00  0.0000000000000000e+00  0.0000000000000000e+00  0.0000000000000000e+00  0.0000000000000000e+00  0.0000000000000000e+00  0.0000000000000000e+00  0.0000000000000000e+00  2.0697165765561068e-03  4.0025944937697160e-03  5.9255949392524616e-03  7.7881108349821069e-03  9.6010856909507104e-03  1.1364276619508094e-02  1.3077827830534274e-02  1.4739846305277863e-02  1.6347109762709946e-02  1.7897463806319860e-02  1.9387791571419660e-02  2.0814556886987631e-02  2.2173316873338490e-02  2.3461081754918178e-02  2.4674593578074784e-02  2.5805784061414316e-02  2.6856634642911784e-02  2.7812604587612005e-02  2.8673394763452875e-02  2.9430724089730177e-02  3.0078161944830276e-02  3.0609229202096511e-02  3.1017362580922629e-02  3.1290676855602342e-02  3.1437222594356516e-02  3.1436284457358722e-02  3.1282893911848096e-02  3.0975542335046468e-02  3.0500532651897928e-02  2.9856575847432440e-02  2.9038369097986190e-02  2.8040537695012545e-02  2.6874681993192529e-02  2.5514383438775230e-02  2.3944196729097804e-02  2.2194442614678594e-02  2.0241241759923655e-02  1.8071601246018740e-02  1.5679543393334442e-02  1.3075649579417484e-02  1.0220545757708878e-02  7.1405731303237751e-03  3.8224545819421211e-03  2.8911619145489758e-04  -3.4446133261191378e-03  -7.3192256547260212e-03  -1.1296945771666600e-02  -1.5294382838882750e-02  -1.9226656733831664e-02  -2.3044946060618975e-02  -2.6671202618992071e-02  -3.0087985771032045e-02  -3.3244837164004226e-02  -3.6273166594584356e-02  -3.9173560659416302e-02  -4.2055200639711070e-02  -4.5008039072078072e-02  -4.8130352603642311e-02  -5.1488812909875940e-02  -5.5168528513442221e-02  -5.9211213454915854e-02  -6.3592160486626109e-02  -6.8292597861464743e-02  -7.3329035600108797e-02  -7.8618772247731630e-02  -8.4074479840104438e-02  -8.9652958728839507e-02  -9.5260954076363230e-02  -1.0080516054887560e-01  -1.0622382904721037e-01  -1.1132569917642163e-01  -1.1621189914299682e-01  -1.2066773649381311e-01  -1.2459667120076647e-01  -1.2773333542500559e-01  -1.3023154615394592e-01  -1.3172029089473003e-01  -1.3234776665091472e-01  -1.3217854715247188e-01  -1.3079505446408493e-01  -1.2858391695059779e-01  -1.2556933961097810e-01  -1.2195046481840807e-01  -1.1775596810156530e-01  -1.1306050827230132e-01  -1.0796341731329297e-01  -1.0258766200937093e-01  -9.6968500722581605e-02  -9.1132302232941026e-02  -8.5164357150629560e-02  -7.9070379930075652e-02  -7.2894635866134622e-02  -6.6652551758552003e-02  -6.0358215505760968e-02  -5.4026887154471917e-02  -4.7676316929198950e-02  -4.1309059071754334e-02  -3.4933891649204303e-02  -2.8556993972646133e-02  -2.2184749022471278e-02  -1.5819721591048663e-02  -9.4626000707187241e-03  -3.1181491417112610e-03  3.2129991766779832e-03  9.5285954325596504e-03  1.5828433494866675e-02  2.2111354238343227e-02  2.8375912457311775e-02  3.4622793183009225e-02  4.0850415272610449e-02  4.7059259046646616e-02  5.3248794103482260e-02  5.9418703491729508e-02  6.5569169996202284e-02  7.1699880264150487e-02  7.7810842284697895e-02  8.3902018189624880e-02  8.9973394230682027e-02  9.6024978058530358e-02  1.0205676990226442e-01  1.0806877336085341e-01  1.1406095695924942e-01  1.1406036503825386e-01  1.1405889906987657e-01  1.1405663198122432e-01  1.1405387779802945e-01  1.1405112801473888e-01  1.1404885243669600e-01  1.1404739774015539e-01  1.1404680303756057e-01  -9.9143612342092319e-02  -1.3479747387041083e-01  -2.4776723786649713e-01  -2.0826258330968211e-01  -2.0630852184637882e-01  -1.9222476696071375e-01  -1.7665571198650779e-01  -1.6233973927380349e-01  -1.4840439512540135e-01  -1.3553674366586749e-01  -1.2483921583842637e-01  -1.1418664039616074e-01  -1.0347091279261672e-01  -9.2436523462393574e-02  -8.0881830631308729e-02  -6.9050975943601850e-02  -5.6290199995160425e-02  -9.1256691842865348e-02  -8.5412549583789382e-02  -8.0166220273421199e-02  -7.0737727218886270e-02  -5.4471513069095721e-02  -3.2056184007502424e-02  -1.4725635046001076e-01  -1.0851698842778416e-01  -9.0705042376169921e-03  9.9675599714531618e-03  2.3825423168160002e-02  -1.1512027092701078e-01  3.1947010755853100e-02  3.5876979896021809e-02  -4.3112471192421245e-02  3.7771805662364863e-02  -8.6447838090767157e-02  -6.5259299281778010e-02  3.8004223361619613e-02  -4.9144065133820150e-02  -2.8710903817101951e-02  -3.4759386212981254e-02  3.7159861911078410e-02  -1.4617778844686036e-02  -1.0508380337393891e-01  3.5528956340431614e-02  -1.7052536282865741e-02  -1.2195615536550285e-01  1.5257916594782896e-03  3.3346607656841998e-02  5.5323249495666535e-03  1.9286357866838671e-02  1.4225601556880740e-02  3.0620311179350036e-02  2.1287918674173595e-02  -1.3155583663353587e-01  2.7187736300963942e-02  3.7144948178201624e-02  2.6143341655596921e-02  -1.2948377954323742e-01  -1.1937307102069447e-01  2.9373985386942084e-02  2.3288597085451761e-02  5.7039151009232424e-02  7.1842239668398131e-02  -5.3004106223806906e-03  1.9744173858753867e-02  1.5604189063576891e-02  -1.0003408012958055e-01  3.1038618881150858e-02  3.1035917693849044e-02  -8.1875158364432266e-02  -2.2197390485513738e-01  -2.4625826043241986e-01  -6.3671227308934375e-02  2.9653905571997617e-02  1.1363166452902791e-02  -3.8987876251167917e-02  2.6248502346395208e-02  -6.4645996163233358e-03  2.2750797635490715e-02  2.5244143003793823e-02  1.8594320654353551e-02  4.3853290721467930e-02  8.0725886736139105e-02  6.2639229527240450e-02  1.3859929917135203e-02  1.0901074083750439e-01  1.7591285602131649e-03  8.8358845879692754e-02  -1.0967832402551811e-01  8.8122525893948606e-03  6.2187837064691040e-03  -1.2144791257994038e-01  -1.0795844065903942e-01  -1.2822632266176828e-01  -9.7794079085068208e-02  -1.1061716881103181e-01  -5.0805901145858014e-02  -2.5675596641384479e-02  7.1092898555957223e-03  -2.8085599474645746e-02  -4.2883429583449331e-02  -5.6169768627479050e-02  -7.5480597329003529e-02  4.6682349856436246e-02  2.7999178164074712e-02  3.1333661301171344e-02  2.8157846312724076e-02  1.0814874073180292e-02  2.5420198743292096e-02  9.2902526585970022e-02  2.8995749903028063e-02  3.2054234031005935e-02  -6.4165583329370479e-03  3.4505008879211860e-02  1.0898034463257945e-01  3.6425222195824246e-02  -2.1453959894207127e-02  3.7728068766060496e-02  3.8064665031079171e-02  -2.0488710872653314e-02  3.7062301182528706e-02  -3.6203134756144457e-02  3.4211321430530316e-02  2.8384595677529573e-02  1.7822943035180065e-02  -4.9857076028837780e-02  1.7184867938127158e-03  1.4739453405629595e-03  -6.2672947252541023e-02  -7.4994876329896903e-02  -8.6930361584360863e-02  -9.7646878762481418e-02  -1.0907983142418466e-01  -1.1961364121431556e-01  -1.3043339241132176e-01  -1.4337611360696045e-01  -9.4951716127545494e-02  -1.5682172878403799e-01  -1.7090014057269429e-01  -1.8580262945554615e-01  -8.8076562009338388e-02  -2.0270841051654065e-01  -7.6381102164760240e-02  -8.2862327965231838e-02  -6.4201126511617343e-02  -4.3881767013270241e-02  1.0940294976889768e-01  -1.7409167737220904e-01  1.8430049561049594e-03  9.9397040194389719e-02  4.9048273297156901e-03  -1.0893152110114747e-01  1.4898470618563639e-03  1.0953754155308544e-01  -1.0866932087906357e-01  -1.0830870404131880e-01  -1.0754116673522769e-01  -1.0827815785653812e-01  -1.0746208210893304e-01  -1.0846276494671515e-01  -1.0744992143656240e-01  -1.0865281601768445e-01  -1.0741747193893036e-01  -1.0859817072271881e-01  -1.0708394105530562e-01  -1.0805408798315588e-01  -1.0623100976885001e-01  -1.0693916253260426e-01  -1.0487393305979392e-01  -1.0548019437330242e-01  -1.0316105473014292e-01  -1.0397416922987650e-01  -1.0161680277877914e-01  -1.0301069703138013e-01  -1.0045540704134294e-01  -1.0564421953324035e-01  -9.8936344046311409e-02  -9.7774200156398261e-02  -1.0525587703962504e-01  -1.0835170072885256e-01  -9.6132828266597387e-02  -9.5043968300095316e-02  -9.3603717508871850e-02  -9.2492996904018021e-02  -9.1048814901268260e-02  -9.0158344353570563e-02  -8.8823368132780883e-02  -8.8168680727500948e-02  -8.6913537480041422e-02  -8.6490093251394742e-02  -8.5394199556356395e-02  -8.4887998727972508e-02  -8.4250355356534273e-02  -8.3685268352299502e-02  -8.3432048294734037e-02  -8.2471066963982972e-02  -8.2737975524316540e-02  -8.1551084446940800e-02  -8.2069201803669292e-02  -8.0355396132839083e-02  -8.1164829280392814e-02  -7.8774166884325772e-02  -7.9817545103871165e-02  -7.6668744049717463e-02  -7.7694486589724998e-02  -1.0833316333758874e-01  -1.1197193020813939e-01  -7.3917921882941690e-02  -7.5081707460161726e-02  -7.0599215095541151e-02  -7.1142833730325483e-02  -6.6450512336885620e-02  -6.6827799553069597e-02  -6.1730335793961769e-02  -6.1575154225839777e-02  -5.6464029528969860e-02  -5.5643296564746800e-02  -9.7279862138231435e-02  -5.0867272408565908e-02  -4.9218656231576688e-02  -4.5055954904596865e-02  -4.2594244388689181e-02  -3.9256519007708102e-02  -3.5970754508717472e-02  -1.1205110935081099e-01  -1.1631392346495088e-01  -1.0887880163146710e-01  -3.3603183257715934e-02  -2.9501398703532650e-02  -1.1227113567553908e-01  -2.8159847897456316e-02  -2.3362864604158540e-02  -2.3103525891564145e-02  -1.7698460053635526e-02  -1.8388463227283505e-02  -1.2514020824430181e-02  -8.9970342106096335e-02  -1.4298347420811637e-02  -7.8951831855065234e-03  -1.0211304450873039e-02  -3.7177955152554922e-03  -6.5535672662045000e-03  6.0911950325076294e-06  -1.0408439904736295e-01  -8.4183058365559144e-02  -3.1753359460176900e-03  3.2926974101919106e-03  -1.1605618380616355e-01  -1.2131360297905643e-01  -1.1189768081050726e-01  -7.9188385252921281e-02  -4.5934534372026964e-04  6.3536353817705560e-03  2.3765070945431376e-03  9.0787920537139747e-03  5.0402471858009322e-03  1.1418516762677015e-02  -3.1730553762754223e-02  1.0039397505860593e-02  -1.1947970327797385e-02  -5.3429773934671576e-02  7.5587404748321107e-03  1.3551103276478018e-02  1.7387853316080084e-02  1.9265004405209840e-02  1.5573541195232264e-02  2.0958261793538279e-02  1.7487631901729687e-02  2.2552003379761782e-02  1.9209339910600195e-02  2.3929930808125669e-02  2.0781607330443281e-02  2.5215223362161972e-02  2.2255008183261548e-02  2.6336801407084543e-02  2.3517325545231497e-02  2.7361763316968213e-02  2.4774098777720702e-02  2.8384265511898737e-02  2.5881051590413776e-02  2.9201825337363041e-02  2.6912309336972882e-02  2.9894663516790352e-02  2.7710444425675208e-02  3.0514019204670510e-02  -7.0461534391446909e-02  -7.2057607865621001e-02  2.8525168853884678e-02  3.1013906770577498e-02  2.9286509433114040e-02  3.1481288792536699e-02  -9.0118916901325549e-02  2.9944762957910827e-02  3.1839565427810371e-02  -8.2289581639240161e-02  -8.3919576303945587e-02  -1.1999100587714200e-01  -1.2521633833138598e-01  -1.2807238638943436e-01  -1.3167017120171712e-01  -1.3573016473327945e-01  -1.3891209336246407e-01  -1.4420660647539107e-01  -1.4639846697143422e-01  -1.5347594395769046e-01  -1.5363894079099777e-01  -1.6236957564729748e-01  -1.5999867985441066e-01  -1.7015364652989715e-01  -1.6556742456607088e-01  -1.7750794666432373e-01  -1.7044955674087911e-01  -1.7942088565647643e-01  -1.7127800526318698e-01  -1.8016289351883641e-01  -1.7296051013982836e-01  -1.7941391342836632e-01  -1.7204793842838423e-01  -1.7722072438298278e-01  -1.7005646530196736e-01  -1.7409571767855636e-01  -1.6735155874784777e-01  -1.7042093117519541e-01  -1.6408447134871013e-01  -1.6579636370946410e-01  -1.6070933750752325e-01  -1.5780185413045722e-01  -1.6046415132732514e-01  -1.5462646340624719e-01  -1.5664547047384117e-01  -1.5121805209767911e-01  -1.5285780151832404e-01  -1.4769519653216881e-01  -1.4909569979463116e-01  -1.4958455441928964e-01  -1.4411234148730742e-01  -1.4480141295509594e-01  -1.4020288097870595e-01  -1.3920738966562821e-01  -1.3562267001880152e-01  -1.3628808114924990e-01  -1.3198252200363420e-01  -1.3222752305806504e-01  -1.2824965574996719e-01  -1.3954903692671627e-01  -1.2818990822815163e-01  -1.2443143459700991e-01  -1.2412395619860082e-01  -1.2049149365555017e-01  -1.2062445482555775e-01  -1.1680862948623144e-01  -1.1679494423761048e-01  -1.1309507840679027e-01  -1.8129633740816758e-01  -1.6207811474881129e-01  -1.6187185221218953e-01  -1.8759776589152113e-01  -1.1291356281505008e-01  -1.0931544333962774e-01  -1.0939150856334247e-01  -1.0565293215408947e-01  -1.0548494092447465e-01  -1.0188638409472482e-01  -1.0158907323957508e-01  -9.8054319234376436e-02  -9.8312835965033887e-02  -9.4532942783573992e-02  -9.4120685004418073e-02  -9.0677907926895659e-02  -1.3455255279862813e-01  -9.0148644660540830e-02  -8.6815407891254193e-02  -1.8476535300956615e-01  -1.4564193177175006e-01  -1.2013462732641142e-01  -1.7675220825116236e-01  -8.6225657908574449e-02  -8.2831681708108867e-02  -8.3664798912884919e-02  -7.9457220241938631e-02  -7.8906070411172174e-02  -7.5391392136155852e-02  -7.5947923518186286e-02  -7.1892529940825733e-02  -7.1314042374041153e-02  -6.7833242897311755e-02  -1.5798300323425676e-01  -6.7239395313083705e-02  -6.3699494165134374e-02  -9.4577159307077663e-02  -1.3548972869716391e-01  -6.0761616532603507e-02  -1.4904855891613780e-01  -6.4314590867049298e-02  -6.0167666254019141e-02  -5.9547708294699193e-02  -5.6020444563749251e-02  3.0438888709733637e-02  3.2114184160426926e-02  3.0873054697292752e-02  3.2320570130717659e-02  3.1241472069247125e-02  3.2455296328679953e-02  -5.5230156190027267e-02  -5.1753783923471013e-02  -3.6701993034947249e-02  -5.2434517190135387e-02  -4.8197925500699929e-02  -4.7639601537754400e-02  -4.3986036173896133e-02  -1.0966279733028243e-01  -1.2966494612064136e-01  -1.2048937959324413e-01  2.9375713286433534e-02  3.1518418678882158e-02  3.2511788416947629e-02  2.2513597379924442e-02  3.2510868410307502e-02  3.3531063180778788e-02  3.3379761970887670e-02  3.2494775122894913e-02  3.3174969025973826e-02  3.2410175680126774e-02  3.2910574722609769e-02  3.2244442818134808e-02  3.2582543160285027e-02  3.2006811113725761e-02  3.2194154129061153e-02  3.1686442683490801e-02  3.1732831553591551e-02  3.1290744842869360e-02  3.1212789970793103e-02  3.0821931246762482e-02  3.0631662836198715e-02  3.0284910218012488e-02  2.9990814262933069e-02  2.9667473557991503e-02  2.9276103079475611e-02  2.8968874765531179e-02  2.8509263803546854e-02  2.8195525723595898e-02  2.7658169140484329e-02  -4.3414518496241415e-02  -3.9744156254107127e-02  -4.0055998722204562e-02  -3.5947703610302931e-02  -3.542914618115