<?xml version="1.0"?>
<VTKFile type="UnstructuredGrid"  version="0.1"  >
<UnstructuredGrid>
<Piece  NumberOfPoints="2945" NumberOfCells="5525">
<Points>
<DataArray  type="Float64"  NumberOfComponents="3"  format="ascii">0 0.1 0  0.95 0.1 0  1 0.1 0  1 0 0  1.5 0 0  3 0 0  3 0.3 0  0 0.3 0  0.0197424558707114 0.1 0  0.03915669042224804 0.1 0  0.05824816022699029 0.1 0  0.07702223050332387 0.1 0  0.09548417327144595 0.1 0  0.1136391897583987 0.1 0  0.1314923700144587 0.1 0  0.1490487330862866 0.1 0  0.1663132263225292 0.1 0  0.1832906857273058 0.1 0  0.1999858946008978 0.1 0  0.216403545770297 0.1 0  0.2325482404045023 0.1 0  0.2484245348165176 0.1 0  0.2640368740372501 0.1 0  0.2793896589642241 0.1 0  0.2944872056237027 0.1 0  0.3093337469555254 0.1 0  0.3239334613687816 0.1 0  0.3382904528528069 0.1 0  0.3524087553122972 0.1 0  0.3662923366391824 0.1 0  0.3799451014768399 0.1 0  0.393370886920506 0.1 0  0.4065734648871676 0.1 0  0.419556546320114 0.1 0  0.4323237821343415 0.1 0  0.4448787573056132 0.1 0  0.4572250047274954 0.1 0  0.4693659926332938 0.1 0  0.4813051343276231 0.1 0  0.4930457849308193 0.1 0  0.5045912455271677 0.1 0  0.5159447600209797 0.1 0  0.5271095174127136 0.1 0  0.5380886618453393 0.1 0  0.5488852725463512 0.1 0  0.5595023868312478 0.1 0  0.5699429904313016 0.1 0  0.5802100167387366 0.1 0  0.5903063508274641 0.1 0  0.6002348329443006 0.1 0  0.6099982499579832 0.1 0  0.6195993483501782 0.1 0  0.6290408246013842 0.1 0  0.6383253354321616 0.1 0  0.6474554910757137 0.1 0  0.6564338522440513 0.1 0  0.6652629482939147 0.1 0  0.6739452579188948 0.1 0  0.6824832240165607 0.1 0  0.6908792415022103 0.1 0  0.6991356755989045 0.1 0  0.7072548438546967 0.1 0  0.7152390281534421 0.1 0  0.7230904746196039 0.1 0  0.7308113906759266 0.1 0  0.7384039435269326 0.1 0  0.7458702676581656 0.1 0  0.7532124631720397 0.1 0  0.7604325921167397 0.1 0  0.7675326856666862 0.1 0  0.7745147374421916 0.1 0  0.7813807123989068 0.1 0  0.7881325374362798 0.1 0  0.7947721131625659 0.1 0  0.8013013031866276 0.1 0  0.8077219449067021 0.1 0  0.8140358419942376 0.1 0  0.8202447685401882 0.1 0  0.8263504700910924 0.1 0  0.8323546643163114 0.1 0  0.8382590362474568 0.1 0  0.8440652473522128 0.1 0  0.8497749272799842 0.1 0  0.8553896837646281 0.1 0  0.8609110933285474 0.1 0  0.866340708855119 0.1 0  0.8716800550492284 0.1 0  0.8769306339052932 0.1 0  0.8820939206038667 0.1 0  0.8871713655604893 0.1 0  0.8921643975475726 0.1 0  0.8970744196575535 0.1 0  0.9019028106970642 0.1 0  0.9066509291259979 0.1 0  0.9113201098984042 0.1 0  0.9159116634553873 0.1 0  0.9204268818729691 0.1 0  0.9248670319440222 0.1 0  0.9292333656649013 0.1 0  0.9335271075812669 0.1 0  0.9377494640511216 0.1 0  0.941901623463222 0.1 0  0.9459847526686701 0.1 0  0.9538461538461205 0.1 0  0.9576923076922409 0.1 0  0.9615384615384381 0.1 0  0.9653846153846337 0.1 0  0.9692307692307542 0.1 0  0.9730769230768747 0.1 0  0.9769230769229952 0.1 0  0.9807692307691157 0.1 0  0.9846153846152361 0.1 0  0.9884615384614317 0.1 0  0.9923076923076356 0.1 0  0.9961538461538395 0.1 0  1 0.09591793123533533 0  1 0.09133596463859224 0  1 0.08619288104391448 0  1 0.08041996484521211 0  1 0.07394008421771697 0  1 0.06666666567302955 0  1 0.05850252932209174 0  1 0.04933859630113544 0  1 0.03905242821848202 0  1 0.02750659386753798 0  1 0.01454683679239736 0  1.015625 0 0  1.03125 0 0  1.046875 0 0  1.0625 0 0  1.078125 0 0  1.09375 0 0  1.109375 0 0  1.125 0 0  1.140625 0 0  1.15625 0 0  1.171875 0 0  1.1875 0 0  1.203125 0 0  1.21875 0 0  1.234375 0 0  1.25 0 0  1.265625 0 0  1.28125 0 0  1.296875 0 0  1.3125 0 0  1.328125 0 0  1.34375 0 0  1.359375 0 0  1.375 0 0  1.390625 0 0  1.40625 0 0  1.421875 0 0  1.4375 0 0  1.453125 0 0  1.46875 0 0  1.484375 0 0  1.515920751924515 0 0  1.531989369316721 0 0  1.54820720925872 0 0  1.564575665560501 0 0  1.581096138674279 0 0  1.597770029901263 0 0  1.614598783332311 0 0  1.631583831055205 0 0  1.64872661129721 0 0  1.666028606716533 0 0  1.683491276608443 0 0  1.701116134125304 0 0  1.718904673324128 0 0  1.736858414799339 0 0  1.754978895814663 0 0  1.773267661782904 0 0  1.791726281103402 0 0  1.810356325314689 0 0  1.8291593848892 0 0  1.848137076690385 0 0  1.867291007717254 0 0  1.886622833871288 0 0  1.90613418642363 0 0  1.925826753299799 0 0  1.945702199101513 0 0  1.96576223584749 0 0  1.986008569283268 0 0  2.006442931928877 0 0  2.02706707547783 0 0  2.047882750887917 0 0  2.06889175187935 0 0  2.090095860038271 0 0  2.111496891648636 0 0  2.133096679109554 0 0  2.154897066851056 0 0  2.176899916687499 0 0  2.199107102752146 0 0  2.22152053937028 0 0  2.244142122958061 0 0  2.266973806444078 0 0  2.290017523268154 0 0  2.313275249499252 0 0  2.336748971745516 0 0  2.360440702338606 0 0  2.384352453384031 0 0  2.408486280477412 0 0  2.432844240041185 0 0  2.457428414757088 0 0  2.482240901796653 0 0  2.507283830121838 0 0  2.532559332080812 0 0  2.558069568787417 0 0  2.583816724966441 0 0  2.60980299606584 0 0  2.636030600971886 0 0  2.662501790984011 0 0  2.689218818279327 0 0  2.716183964547616 0 0  2.743399548861297 0 0  2.77086788244719 0 0  2.798591312896326 0 0  2.826572223178268 0 0  2.854812990138617 0 0  2.883316031690714 0 0  2.912083780657189 0 0  2.941118704633482 0 0  2.970423276998917 0 0  3 0.02999999999994495 0  3 0.05999999999987042 0  3 0.089999999999783 0  3 0.119999999999701 0  3 0.149999999999619 0  3 0.179999999999692 0  3 0.2099999999997737 0  3 0.2399999999998511 0  3 0.2699999999999185 0  2.970138294777171 0.3 0  2.940375666438236 0.3 0  2.910711782853056 0.3 0  2.881146331305122 0.3 0  2.851678975030285 0.3 0  2.822309388626621 0.3 0  2.793037250095074 0.3 0  2.76386223529133 0.3 0  2.734784017903872 0.3 0  2.705802289276642 0.3 0  2.676916713794697 0.3 0  2.648126987654635 0.3 0  2.619432780406184 0.3 0  2.590833779385199 0.3 0  2.562329669847737 0.3 0  2.533920134950189 0.3 0  2.505604855727852 0.3 0  2.477383539822502 0.3 0  2.449255847639465 0.3 0  2.421221492569094 0.3 0  2.393280152486815 0.3 0  2.36543151914496 0.3 0  2.337675285481809 0.3 0  2.310011142385583 0.3 0  2.282438797441587 0.3 0  2.254957931061538 0.3 0  2.227568248063605 0.3 0  2.200269436651085 0.3 0  2.173061204949961 0.3 0  2.145943251515011 0.3 0  2.118915272469994 0.3 0  2.091976978084957 0.3 0  2.065128060700849 0.3 0  2.038368218849433 0.3 0  2.01169717777258 0.3 0  1.985114624111908 0.3 0  1.958620267850966 0.3 0  1.93221382054972 0.3 0  1.905894991850698 0.3 0  1.879663489459713 0.3 0  1.853519019126419 0.3 0  1.827461291053897 0.3 0  1.801490031354372 0.3 0  1.775604937580312 0.3 0  1.74980572560258 0.3 0  1.724092118631866 0.3 0  1.698463829173586 0.3 0  1.672920575782554 0.3 0  1.647462076974085 0.3 0  1.622088043536933 0.3 0  1.5967981978949 0.3 0  1.571592267767068 0.3 0  1.546469970305736 0.3 0  1.521431023814044 0.3 0  1.496475156230927 0.3 0  1.471602093687753 0.3 0  1.446811560490646 0.3 0  1.422103279101731 0.3 0  1.397476971708191 0.3 0  1.37293238939876 0.3 0  1.348469231419202 0.3 0  1.324087248732772 0.3 0  1.299786165921677 0.3 0  1.275565710847046 0.3 0  1.251425617644257 0.3 0  1.227365618676339 0.3 0  1.203385446174014 0.3 0  1.179484853067473 0.3 0  1.155663548773374 0.3 0  1.131921292279077 0.3 0  1.108257802159295 0.3 0  1.084672829009693 0.3 0  1.061166115303374 0.3 0  1.037737392995421 0.3 0  1.01438640299116 0.3 0  0.991112899770314 0.3 0  0.9679166155523955 0.3 0  0.944797284182564 0.3 0  0.921754678526042 0.3 0  0.8987885143602501 0.3 0  0.8758985548820624 0.3 0  0.8530845484099929 0.3 0  0.8303462351786988 0.3 0  0.8076833651172373 0.3 0  0.7850956864865304 0.3 0  0.7625829601354557 0.3 0  0.7401449314598274 0.3 0  0.717781337993959 0.3 0  0.6954919649675473 0.3 0  0.6732765357561226 0.3 0  0.6511348120768439 0.3 0  0.6290665642016573 0.3 0  0.6070715355430467 0.3 0  0.5851494825775325 0.3 0  0.5633001690203812 0.3 0  0.5415233562273221 0.3 0  0.5198187909431873 0.3 0  0.4981862401387795 0.3 0  0.4766254686134248 0.3 0  0.4551362360485234 0.3 0  0.4337182975262159 0.3 0  0.4123714223228037 0.3 0  0.3910953802377493 0.3 0  0.3698899313205595 0.3 0  0.3487548463710963 0.3 0  0.3276898864081783 0.3 0  0.3066948129116018 0.3 0  0.2857694003037476 0.3 0  0.2649134227095047 0.3 0  0.2441266417321288 0.3 0  0.2234088223399122 0.3 0  0.2027597568977288 0.3 0  0.1821792020676698 0.3 0  0.1616669305402443 0.3 0  0.1412227158799362 0.3 0  0.12084633013886 0.3 0  0.1005375673448281 0.3 0  0.08029618164595353 0.3 0  0.06012194778526769 0.3 0  0.04001466495039718 0.3 0  0.01997408913631205 0.3 0  0 0.2800000000000553 0  0 0.2600000000001105 0  0 0.2400000000001658 0  0 0.2200000000002211 0  0 0.2000000000002764 0  0 0.1800000000002244 0  0 0.1600000000001691 0  0 0.140000000000115 0  0 0.1200000000000564 0  1.133778471000506 0.01219539743990768 0  1.003741919047894 0.09354664821474232 0  0.9559421147150347 0.1035858189992458 0  0.9313792160389045 0.1037365237938103 0  0.9788461538460573 0.1033060829993555 0  0.9090102438250753 0.1037269304984056 0  0.8846304212778655 0.1043349840723655 0  0.8581503885465881 0.104741932962923 0  0.8286416220145676 0.1052762843984476 0  0.7982741772533339 0.1053575624517407 0  0.7708789559342691 0.1060290465840416 0  0.741870349714261 0.1078220590984258 0  0.7112469360040695 0.10685702926368 0  0.6783901541417233 0.1079959711853378 0  0.642884733623195 0.1075561996086514 0  0.6056235042367955 0.1085956039602543 0  0.5647007593786924 0.1083187281660325 0  1.1953125 0.01353164693413185 0  1.258148737344733 0.01268350115427042 0  1.320087046516829 0.01426312402966312 0  1.383495130751951 0.01432665475473204 0  1.4453125 0.01315663539200989 0  1.50886768312388 0.01395488397722681 0  0.9942307692307371 0.103330866937657 0  1.119309781943483 0.2802014914557878 0  1.572831235329714 0.01707210522554785 0  1.637611634353954 0.01209340368483431 0  1.709661292005932 0.0146870244871893 0  1.006561890631532 0.07068055446055937 0  1.784793444007901 0.01499371444634687 0  1.855459587353174 0.0
[...]
<PointData  Scalars="pressure"> 
<DataArray  type="Float64"  Name="pressure"  format="ascii">1.5602085517556202e-01  -1.7077419168354446e-01  -1.3183014092150250e-01  -7.9081141349880896e-02  1.2102130427533331e-02  0.0000000000000000e+00  0.0000000000000000e+00  1.5603888047750275e-01  1.5009813582652923e-01  1.4427368635443566e-01  1.3854581367797272e-01  1.3291288056702213e-01  1.2737324034813235e-01  1.2192534210579389e-01  1.1656760015825060e-01  1.1129844149915723e-01  1.0611641481835858e-01  1.0101989718884080e-01  9.6007422130716571e-02  9.1077578396936754e-02  8.6228823593145543e-02  8.1459760332065409e-02  7.6768887209222481e-02  7.2154830224025704e-02  6.7616079830906478e-02  6.3151327037657454e-02  5.8759059068739281e-02  5.4437992077685127e-02  5.0186527203020415e-02  4.6003418055632170e-02  4.1887546565010141e-02  3.7836968657729057e-02  3.3850621939249315e-02  2.9926968224005042e-02  2.6064828056075552e-02  2.2262605576461515e-02  1.8518951196631661e-02  1.4832475775629171e-02  1.1201764049202112e-02  7.6257722860588609e-03  4.1023164472216338e-03  6.3041760335349572e-04  -2.7912890648830501e-03  -6.1643043760156351e-03  -9.4902699797719328e-03  -1.2770375506926192e-02  -1.6006271357742751e-02  -1.9199278510921996e-02  -2.2351144711469942e-02  -2.5463188354628300e-02  -2.8536898241283651e-02  -3.1573725199336260e-02  -3.4575401281343184e-02  -3.7543165344192331e-02  -4.0478932176252265e-02  -4.3383914077975455e-02  -4.6259756984735341e-02  -4.9108422332486933e-02  -5.1930777748006328e-02  -5.4728962806648442e-02  -5.7504879361919163e-02  -6.0258480678274287e-02  -6.2992863859883078e-02  -6.5709445165221370e-02  -6.8409193140746644e-02  -7.1095713665004251e-02  -7.3767978974779894e-02  -7.6427726546169389e-02  -7.9078617573808532e-02  -8.1721250193011866e-02  -8.4358513503828822e-02  -8.6989613213101905e-02  -8.9616397181225133e-02  -9.2243608916310865e-02  -9.4870725072189147e-02  -9.7500189771337259e-02  -1.0013369926078076e-01  -1.0277332955831288e-01  -1.0542044239574638e-01  -1.0807795577096664e-01  -1.1074650336769772e-01  -1.1342862077237868e-01  -1.1612828244572945e-01  -1.1884679000034236e-01  -1.2158582183340085e-01  -1.2434969680310719e-01  -1.2714061194786938e-01  -1.2996137272697431e-01  -1.3281501122138831e-01  -1.3571065059309484e-01  -1.3864684855456139e-01  -1.4163118110071340e-01  -1.4466721102970662e-01  -1.4777295524662074e-01  -1.5093621323761983e-01  -1.5411060227616794e-01  -1.5816505459800187e-01  -1.5729300784463610e-01  -1.8183856930522158e-01  -1.4588501132833154e-01  -1.7595811262553424e-01  -1.7444948811308689e-01  -1.8096499156928827e-01  -1.9152788214890754e-01  -2.0409637323127100e-01  -2.0764848214514908e-01  -2.0555807035780130e-01  -1.9865612691955636e-01  -1.8845848311153496e-01  -1.7598457840908197e-01  -1.6237305171075853e-01  -1.4846275493722816e-01  -1.3494865219100144e-01  -1.2421912841686357e-01  -1.0377473923521240e-01  -1.2810213189648068e-01  -1.0407862295769583e-01  -9.6611568109826740e-02  -9.0933683564214482e-02  -8.7115618794892366e-02  -8.4201100248815691e-02  -8.1900758354482170e-02  -8.0186899223715913e-02  -7.9050222289571995e-02  -7.8537195523938647e-02  -7.8740821294149776e-02  -7.9508710690986903e-02  -7.9600541220505625e-02  -7.8902289403588885e-02  -7.7559303653520428e-02  -7.5691323648159003e-02  -7.3421857401435753e-02  -7.0836904320391525e-02  -6.8009613236075114e-02  -6.5082637845358823e-02  -6.2179400240365688e-02  -5.9405233596648656e-02  -5.6857481279873327e-02  -5.4612895039637829e-02  -5.2726370945689237e-02  -5.1226157741575379e-02  -5.0083318280144867e-02  -4.9241485467047992e-02  -4.8636828749842938e-02  -4.8140522710816439e-02  -4.7527144278563492e-02  -4.6810681276274448e-02  -4.5560529447083602e-02  -4.3774580018477317e-02  -4.1207689073104709e-02  -3.7797582633613422e-02  -3.3265776571121286e-02  -2.7780351343531882e-02  -2.1258880778323611e-02  -1.3840947944961246e-02  -5.6648466440887184e-03  3.0639515099334289e-03  2.1371366175115442e-02  3.0493320650840747e-02  3.9236872426790949e-02  4.7286677743939534e-02  5.4576309460101079e-02  6.0831306234882115e-02  6.6031783363394492e-02  7.0061166454807366e-02  7.2905391207660264e-02  7.4659299498492995e-02  7.5399356858763075e-02  7.5220174186216959e-02  7.4222856914831895e-02  7.2550384631022216e-02  7.0320472109428656e-02  6.7666666888853019e-02  6.4715642720867633e-02  6.1612443486323276e-02  5.8376020878816402e-02  5.5278490933430978e-02  5.2307842672824990e-02  4.9626101582614747e-02  4.7368809349736744e-02  4.5597644850723623e-02  4.4458384147613925e-02  4.3934186359110061e-02  4.4130271588988169e-02  4.5019257840763841e-02  4.6539974390054369e-02  4.8598996683693906e-02  5.1058216708194222e-02  5.3718594882540674e-02  5.6381714544471460e-02  5.8840464564043730e-02  6.0920431529408473e-02  6.2454034635398635e-02  6.3330201330943942e-02  6.3477878127161949e-02  6.2871012507167659e-02  6.1534688291620218e-02  5.9525173835419991e-02  5.6930251135750565e-02  5.3853925915920794e-02  5.0423719946795786e-02  4.6772040213353856e-02  4.3050595195013704e-02  3.9385805527213318e-02  3.5913623966230768e-02  3.2767902055251034e-02  3.0066557821951622e-02  2.7790073776813452e-02  2.6047322164157904e-02  2.4736719330707688e-02  2.3799547428077279e-02  2.3130626432724143e-02  2.2585235962152457e-02  2.2004265775250796e-02  2.1282275733359359e-02  2.0308789268504972e-02  1.9027750742657373e-02  1.7403307694860787e-02  1.5443948222419042e-02  1.3204092933441797e-02  1.0762581676005575e-02  8.1511540890503529e-03  5.4962505175092241e-03  2.7560456113926348e-03  0.0000000000000000e+00  0.0000000000000000e+00  0.0000000000000000e+00  0.0000000000000000e+00  0.0000000000000000e+00  0.0000000000000000e+00  0.0000000000000000e+00  0.0000000000000000e+00  0.0000000000000000e+00  2.3363189265902360e-03  4.4600920078468305e-03  6.5618787351559094e-03  8.6454815871257890e-03  1.0791720631602063e-02  1.3079728619564848e-02  1.5578438181708707e-02  1.8328859524233205e-02  2.1333586541836456e-02  2.4548362610782921e-02  2.7879562480514146e-02  3.1185103267955469e-02  3.4287520648350840e-02  3.6996859190981668e-02  3.9121483678537232e-02  4.0497049408688972e-02  4.1031375847062027e-02  4.0687999909848588e-02  3.9548788298749221e-02  3.7795118352788815e-02  3.5701082435163546e-02  3.3609961592946602e-02  3.1882271043756190e-02  3.0833980444675588e-02  3.0721857029223202e-02  3.1631727648311306e-02  3.3573763327466401e-02  3.6423639418996970e-02  3.9963496734346009e-02  4.3957305005069905e-02  4.8166647222702294e-02  5.2378722520104594e-02  5.6482491772221165e-02  6.0183589011358514e-02  6.3354417313924397e-02  6.5971499975872538e-02  6.7711710088165525e-02  6.8451898996312155e-02  6.7945311387809307e-02  6.6123122999477896e-02  6.2808022211186559e-02  5.7961313753247146e-02  5.1742968247096947e-02  4.4360515119660979e-02  3.6176365271588191e-02  2.7692330086153041e-02  1.9423893228234276e-02  1.1903418637100361e-02  5.4549817637514235e-03  2.9864479805536722e-04  -3.4874063291986429e-03  -6.1137288358467292e-03  -7.7771836408907606e-03  -9.0013981417750768e-03  -1.0014927015504464e-02  -1.1153944967030621e-02  -1.2622349164496047e-02  -1.4576449882801360e-02  -1.7080410867686385e-02  -2.0180324672539530e-02  -2.3866060267517985e-02  -2.8091925051324334e-02  -3.2747624589859262e-02  -3.7798109959441280e-02  -4.3110936620304026e-02  -4.8561667701552388e-02  -5.4060670095975739e-02  -5.9495068851993529e-02  -6.4763107934358799e-02  -6.9799978539636376e-02  -7.4443639764821407e-02  -7.8757927857478774e-02  -8.2608807902056353e-02  -8.5906670488864648e-02  -8.8440992942139016e-02  -9.0342982533879748e-02  -9.1326331051209297e-02  -9.1479677595502198e-02  -9.0930155323159123e-02  -8.9268383253209585e-02  -8.6841065383357993e-02  -8.3675464366847613e-02  -7.9946512416744830e-02  -7.5684733557089420e-02  -7.0950394031840891e-02  -6.5835887177158200e-02  -6.0452764273672056e-02  -5.4836567408343834e-02  -4.9008511045817375e-02  -4.3051629592403454e-02  -3.6970479801612020e-02  -3.0807739005146478e-02  -2.4578656326225329e-02  -1.8296531248598022e-02  -1.1976460893327663e-02  -5.6356853475132678e-03  7.2232000429766914e-04  7.0896566634569939e-03  1.3459635520849982e-02  1.9825895812032760e-02  2.6185640108873618e-02  3.2538312502129380e-02  3.8878936744730662e-02  4.5206800274282241e-02  5.1519625018240402e-02  5.7817079549338228e-02  6.4098049126120854e-02  7.0360878261330709e-02  7.6606389654087045e-02  8.2832799295484982e-02  8.9040669326910141e-02  9.5229396556698695e-02  1.0139861798859170e-01  1.0754854408673230e-01  1.1367881380035622e-01  1.1978942792649246e-01  1.2588033778563790e-01  1.3195151813282793e-01  1.3800296942518386e-01  1.4403468411187131e-01  1.5004665481649127e-01  1.5603883008407374e-01  1.5603808696662100e-01  1.5603623549180590e-01  1.5603336425259742e-01  1.5602987204383673e-01  1.5602638539100072e-01  1.5602350348781138e-01  1.5602166618993371e-01  1.5602091979265684e-01  -6.6270244750941204e-02  -1.0741509675120885e-01  -2.0095560559728465e-01  -1.6496236570676656e-01  -1.6604617520007678e-01  -1.4966726318366091e-01  -1.3447971140195278e-01  -1.2037663030008820e-01  -1.0655820548740565e-01  -9.3741308260253994e-02  -8.3057376027658378e-02  -7.2401441650631781e-02  -6.1668893499911795e-02  -5.0612645253187795e-02  -3.9032235054499792e-02  -2.7176697356011931e-02  -1.4392186046411751e-02  -5.5624250013697356e-02  -4.9394270614861326e-02  -4.6901209839988973e-02  -3.9397684897247535e-02  -1.8091824438555663e-02  1.6443734362285883e-02  -1.1648433822156787e-01  -7.1771639242677307e-02  5.0153115700585539e-02  7.0642078809920461e-02  7.4609041027431225e-02  -8.6266661053000224e-02  6.5878949365237138e-02  5.4214281293126686e-02  -1.1946032307640138e-03  4.4916475602825509e-02  -5.0865271076369317e-02  -2.9713974107897990e-02  4.5751089000671680e-02  -1.5123610463530099e-02  1.3223856245223389e-02  -8.1497236150810150e-03  5.4481383745830225e-02  2.7329293460025762e-02  -7.4207537673186066e-02  6.2676682089607846e-02  8.2433768216833118e-03  -8.3537992519569976e-02  4.3482839465433874e-02  6.0593410734366776e-02  5.4729280505133947e-02  6.1250583348270181e-02  6.7076805214934462e-02  4.8777313542239242e-02  6.6971386438257174e-02  -9.0897470938718222e-02  3.4055022383016109e-02  7.9113708262737226e-02  5.8481832441758370e-02  -8.7801047522743633e-02  -7.7302580099097379e-02  4.6215471116394069e-02  2.5275490947169490e-02  9.9010882938764602e-02  1.1381524110364537e-01  3.1454436354230821e-02  2.2722332047730495e-02  2.0651076172285576e-02  -5.7887609456387885e-02  3.4911639934298209e-02  3.0995423626281847e-02  -3.9762193713573452e-02  -1.7795810727592684e-01  -2.0023915144190543e-01  -2.1599283399849088e-02  3.6408989897682070e-02  1.6528237501652145e-02  3.0425761021133013e-03  4.0748299501315255e-02  3.5535137332224735e-02  3.5726215008445000e-02  6.7230217912038717e-02  2.6248807527680509e-02  8.5835362052737410e-02  1.2270438637835299e-01  1.0461894281032685e-01  1.6874158056159286e-02  1.5098635344885830e-01  2.2070152556726837e-03  1.3033263151348712e-01  -8.0152311039430296e-02  9.8189540798863731e-03  9.2715073104259332e-03  -9.3101600280529953e-02  -7.7888485868491508e-02  -8.8613748304023174e-02  -6.1831282475816464e-02  -6.8479525190858093e-02  -8.7576994914684222e-03  1.6339572075200665e-02  4.9101816454317319e-02  -4.6931742690254699e-03  -1.1204378101981081e-02  -2.1014258139483318e-02  -3.9944232052886768e-02  8.8652750092713339e-02  6.9965888347320981e-02  3.0913360617128564e-02  3.9936668071618532e-02  5.2776073303081684e-02  2.8982845086417016e-02  1.3488060677254538e-01  4.1163203026156212e-02  5.5538886026890964e-02  3.5536091087169541e-02  6.3105412891298493e-02  1.5095742772974471e-01  5.9475448533205251e-02  2.0487610653434254e-02  4.9126481741143702e-02  4.3827637100337442e-02  3.4079563987817689e-02  4.8745119487046733e-02  5.7236023421233300e-03  6.0084239738697504e-02  7.1410416557237136e-02  7.4748049971111008e-02  -7.9488197898856233e-03  6.3113307149835332e-02  2.0372780355807575e-03  -2.0786261315079456e-02  -3.3132617965829184e-02  -4.5094181358502364e-02  -5.5833781755575580e-02  -6.7287143177766143e-02  -7.7830505423389817e-02  -8.8646905216494654e-02  -1.0155491436770747e-01  -6.0552436800604639e-02  -1.1491351231218330e-01  -1.2882433723725867e-01  -1.4342534134240667e-01  -5.1801037395662386e-02  -1.5980353839094191e-01  -4.4619991007675809e-02  -4.8040702920710075e-02  -3.1635521880019016e-02  -2.0105666262565467e-03  1.5137738084515517e-01  -1.3851911866204422e-01  2.1286071230133138e-03  1.4137107030172036e-01  5.4232223842850830e-03  -7.9154182904252093e-02  2.1425962220873061e-03  1.5151536486448952e-01  -7.8793044887738473e-02  -7.8398547560695406e-02  -7.7445068313195684e-02  -7.8418530341510889e-02  -7.7420239513276340e-02  -7.8717220208026920e-02  -7.7494209799030933e-02  -7.9056291624184108e-02  -7.7586113850660790e-02  -7.9162194537298461e-02  -7.7362722213639018e-02  -7.8748528402337412e-02  -7.6556572964038061e-02  -7.7667569231385208e-02  -7.5139591607912504e-02  -7.6101537497360899e-02  -7.3194177873530192e-02  -7.4307119655515813e-02  -7.1218855780813967e-02  -7.2740035449514129e-02  -6.9361345872749433e-02  -7.6097865327339212e-02  -6.7623550001387506e-02  -6.5716838998742769e-02  -7.4877222874367363e-02  -7.8662917480489800e-02  -6.3666597606206382e-02  -6.1847126219925830e-02  -5.9985433477925343e-02  -5.8137715238288964e-02  -5.6136728770351772e-02  -5.4675376881235430e-02  -5.2677427731468697e-02  -5.1692051204064046e-02  -4.9679577021715236e-02  -4.9250313412676043e-02  -4.7367880657876359e-02  -4.7001127874536086e-02  -4.5790898857870153e-02  -4.5618492054417197e-02  -4.5009412617561355e-02  -4.4691385287246803e-02  -4.4854643731907326e-02  -4.4283968998155773e-02  -4.5137989903850637e-02  -4.3970507653294202e-02  -4.5521417780176293e-02  -4.3402275534498623e-02  -4.5601757959222805e-02  -4.2359828099351779e-02  -4.4771167055632527e-02  -7.7532169222114797e-02  -8.1624512422409479e-02  -4.0530489923631820e-02  -4.3407309856007818e-02  -3.7854566753949472e-02  -3.9856504749960608e-02  -3.3859148449419459e-02  -3.5400256081574419e-02  -2.8856164415780986e-02  -2.9346215290942626e-02  -2.2894922942137547e-02  -2.1954922451840400e-02  -6.4320548915727624e-02  -1.6309806615315968e-02  -1.3579535937695080e-02  -9.3507429832927775e-03  -4.7496407343541524e-03  -2.4759988540907483e-03  4.0821732264497796e-03  -8.0500388177567508e-02  -8.5030694271105448e-02  -7.9932473090294984e-02  4.0654495128196006e-03  1.2544641318101089e-02  -8.2935297145044759e-02  1.0227926080260344e-02  2.0297725941368857e-02  1.5538412932722203e-02  2.7057795746786940e-02  2.0297392944254682e-02  3.2800300898956088e-02  -5.4216119472257490e-02  2.3816081630982529e-02  3.7430560616786346e-02  2.7855674655658913e-02  4.1337538648937217e-02  3.1355589653625483e-02  4.4484747319871731e-02  -7.3884796802745317e-02  -4.6622770850908581e-02  3.4741904898690938e-02  4.7013663016341280e-02  -8.3455185715668040e-02  -8.8977043219137658e-02  -7.9071325147956589e-02  -4.2427643923378368e-02  3.7255382006610473e-02  4.9274724052935266e-02  4.0606655377973970e-02  5.1134547951446202e-02  4.4034938848980722e-02  5.2575110544053907e-02  1.2355362032857791e-02  5.8587928118907846e-02  3.9176963170285468e-02  -1.8904736169470467e-02  4.7467604158562861e-02  5.3843060152866516e-02  5.8809064413813984e-02  5.8123639005004765e-02  5.4966915143757941e-02  5.7258026511570935e-02  5.5887803755804398e-02  5.6265811533978236e-02  5.6541289190662196e-02  5.5220706950226545e-02  5.6988483676028857e-02  5.4261928905421378e-02  5.7219707371914626e-02  5.3377203176348684e-02  5.7425692084238804e-02  5.2748990505307486e-02  5.7351914342067788e-02  5.2014245146948648e-02  5.7188844547257922e-02  5.1808727980273007e-02  5.6951697836868660e-02  5.1730962923748069e-02  5.6754322927538570e-02  5.1892058395705772e-02  -4.0296184182872952e-02  -3.7374804569731669e-02  5.6195806340567062e-02  5.2060180774724948e-02  5.5305678451329415e-02  5.2187867850473885e-02  -5.4529035953719510e-02  5.4128511973931835e-02  5.2111213783156397e-02  -4.6075492922394878e-02  -4.5150029147205860e-02  -8.6100968306934964e-02  -9.0838612074377850e-02  -9.5281379009496459e-02  -9.7304982616760516e-02  -1.0241029619120547e-01  -1.0403311490375507e-01  -1.1010809629891434e-01  -1.1073412612920787e-01  -1.1827266043599120e-01  -1.1709030627197731e-01  -1.2590150342489234e-01  -1.2246849900501182e-01  -1.3238610921457625e-01  -1.2704672881415130e-01  -1.3842304857987911e-01  -1.3101718844035803e-01  -1.3943590686078683e-01  -1.3112420306944278e-01  -1.3955218611569109e-01  -1.3225880110381569e-01  -1.3833822810603716e-01  -1.3096800290811250e-01  -1.3584993604916373e-01  -1.2872215238943591e-01  -1.3254553288245369e-01  -1.2585197279178070e-01  -1.2876327060788950e-01  -1.2247341986902407e-01  -1.2493288746904813e-01  -1.1920923792070073e-01  -1.1619422827704970e-01  -1.1878438105229304e-01  -1.1294904961541671e-01  -1.1492694251926344e-01  -1.0949728479924456e-01  -1.1111848826064723e-01  -1.0594860292610930e-01  -1.0738920782214814e-01  -1.0783288796682398e-01  -1.0235072547232772e-01  -1.0304421165406009e-01  -9.8431986426198770e-02  -9.7414089757183284e-02  -9.3819757734848727e-02  -9.4512548684907396e-02  -9.0175142070203940e-02  -9.0448095079004032e-02  -8.6439345896383760e-02  -1.0709718597167099e-01  -8.6407448797595640e-02  -8.2620456842771361e-02  -8.2269225765922049e-02  -7.8639006526035504e-02  -7.8814532631731937e-02  -7.4959146946146693e-02  -7.4985606820717199e-02  -7.1248144847905454e-02  -1.4289225661226687e-01  -1.2293911206527590e-01  -1.2674600714812259e-01  -1.4696713714543791e-01  -7.1109202065372204e-02  -6.7471525167388122e-02  -6.7499814651151097e-02  -6.3766894807084681e-02  -6.3642311329235160e-02  -6.0005505912160056e-02  -5.9746593549645642e-02  -5.6176983704962033e-02  -5.6389757083893530e-02  -5.2618863237034449e-02  -5.2247040770566862e-02  -4.8770734229899478e-02  -9.2711602020569175e-02  -4.8277020367046321e-02  -4.4913364132959113e-02  -1.4328625787188606e-01  -1.0881017955526529e-01  -7.8227638504015179e-02  -1.3499601809134812e-01  -4.4354541594189778e-02  -4.0932704554084459e-02  -4.1730175534410094e-02  -3.7528279051830253e-02  -3.7010101142099149e-02  -3.3468492609249001e-02  -3.3988639947713471e-02  -2.9942450351084920e-02  -2.9395821086743226e-02  -2.5890702279159669e-02  -1.1622474578095734e-01  -2.5324240071887272e-02  -2.1762730784790438e-02  -5.2615011315949194e-02  -9.3727200553401765e-02  -2.6983531590492254e-02  -1.0728574730976963e-01  -2.2348276660021670e-02  -1.8209609301573681e-02  -1.7615494731139127e-02  -1.4069094141393963e-02  5.2662675134040507e-02  5.1730701784242064e-02  5.0723696729178293e-02  5.0951451158073799e-02  4.8427817944070077e-02  4.9746924926577223e-02  -1.3301104285546452e-02  -9.8077791090140625e-03  -2.2748739242242017e-03  -1.0465007484647871e-02  -6.2353992124914359e-03  -5.6972870768895274e-03  -2.0290645259324804e-03  -8.0229823634094616e-02  -9.3958820034136067e-02  -7.8709623214067756e-02  5.1041349820212828e-02  4.5830051365930109e-02  4.8210775763613184e-02  6.2543128361788880e-02  4.7674720663004447e-02  5.2714859788254000e-02  5.2135716101708682e-02  4.6412965678417982e-02  5.1148319464457394e-02  4.4588833378797349e-02  4.9859332041419444e-02  4.2782958376346304e-02  4.8309624402474029e-02  4.1242271013612830e-02  4.6696128202078344e-02  3.9949582691519547e-02  4.5006566262519247e-02  3.8985061793161600e-02  4.3456003568274060e-02  3.8444871951126995e-02  4.2014281176363237e-02  3.8270709342235747e-02  4.0727807842948001e-02  3.8284991245942167e-02  3.9461117004923517e-02  3.8305086861999987e-02  3.8280229249710709e-02  3.8256775736027232e-02  3.7034071458690795e-02  -1.4743421614070858e-03  2.2088962011020670e-03  1.9135522916421759e-03  6.0167165492147510e-03  6.5208499733487935e-03  1.0276532004344604e-02  3.8060019650987015e-02  3.58295799