<?xml version="1.0"?>
<VTKFile type="UnstructuredGrid"  version="0.1"  >
<UnstructuredGrid>
<Piece  NumberOfPoints="2945" NumberOfCells="5525">
<Points>
<DataArray  type="Float64"  NumberOfComponents="3"  format="ascii">0 0.1 0  0.95 0.1 0  1 0.1 0  1 0 0  1.5 0 0  3 0 0  3 0.3 0  0 0.3 0  0.0197424558707114 0.1 0  0.03915669042224804 0.1 0  0.05824816022699029 0.1 0  0.07702223050332387 0.1 0  0.09548417327144595 0.1 0  0.1136391897583987 0.1 0  0.1314923700144587 0.1 0  0.1490487330862866 0.1 0  0.1663132263225292 0.1 0  0.1832906857273058 0.1 0  0.1999858946008978 0.1 0  0.216403545770297 0.1 0  0.2325482404045023 0.1 0  0.2484245348165176 0.1 0  0.2640368740372501 0.1 0  0.2793896589642241 0.1 0  0.2944872056237027 0.1 0  0.3093337469555254 0.1 0  0.3239334613687816 0.1 0  0.3382904528528069 0.1 0  0.3524087553122972 0.1 0  0.3662923366391824 0.1 0  0.3799451014768399 0.1 0  0.393370886920506 0.1 0  0.4065734648871676 0.1 0  0.419556546320114 0.1 0  0.4323237821343415 0.1 0  0.4448787573056132 0.1 0  0.4572250047274954 0.1 0  0.4693659926332938 0.1 0  0.4813051343276231 0.1 0  0.4930457849308193 0.1 0  0.5045912455271677 0.1 0  0.5159447600209797 0.1 0  0.5271095174127136 0.1 0  0.5380886618453393 0.1 0  0.5488852725463512 0.1 0  0.5595023868312478 0.1 0  0.5699429904313016 0.1 0  0.5802100167387366 0.1 0  0.5903063508274641 0.1 0  0.6002348329443006 0.1 0  0.6099982499579832 0.1 0  0.6195993483501782 0.1 0  0.6290408246013842 0.1 0  0.6383253354321616 0.1 0  0.6474554910757137 0.1 0  0.6564338522440513 0.1 0  0.6652629482939147 0.1 0  0.6739452579188948 0.1 0  0.6824832240165607 0.1 0  0.6908792415022103 0.1 0  0.6991356755989045 0.1 0  0.7072548438546967 0.1 0  0.7152390281534421 0.1 0  0.7230904746196039 0.1 0  0.7308113906759266 0.1 0  0.7384039435269326 0.1 0  0.7458702676581656 0.1 0  0.7532124631720397 0.1 0  0.7604325921167397 0.1 0  0.7675326856666862 0.1 0  0.7745147374421916 0.1 0  0.7813807123989068 0.1 0  0.7881325374362798 0.1 0  0.7947721131625659 0.1 0  0.8013013031866276 0.1 0  0.8077219449067021 0.1 0  0.8140358419942376 0.1 0  0.8202447685401882 0.1 0  0.8263504700910924 0.1 0  0.8323546643163114 0.1 0  0.8382590362474568 0.1 0  0.8440652473522128 0.1 0  0.8497749272799842 0.1 0  0.8553896837646281 0.1 0  0.8609110933285474 0.1 0  0.866340708855119 0.1 0  0.8716800550492284 0.1 0  0.8769306339052932 0.1 0  0.8820939206038667 0.1 0  0.8871713655604893 0.1 0  0.8921643975475726 0.1 0  0.8970744196575535 0.1 0  0.9019028106970642 0.1 0  0.9066509291259979 0.1 0  0.9113201098984042 0.1 0  0.9159116634553873 0.1 0  0.9204268818729691 0.1 0  0.9248670319440222 0.1 0  0.9292333656649013 0.1 0  0.9335271075812669 0.1 0  0.9377494640511216 0.1 0  0.941901623463222 0.1 0  0.9459847526686701 0.1 0  0.9538461538461205 0.1 0  0.9576923076922409 0.1 0  0.9615384615384381 0.1 0  0.9653846153846337 0.1 0  0.9692307692307542 0.1 0  0.9730769230768747 0.1 0  0.9769230769229952 0.1 0  0.9807692307691157 0.1 0  0.9846153846152361 0.1 0  0.9884615384614317 0.1 0  0.9923076923076356 0.1 0  0.9961538461538395 0.1 0  1 0.09591793123533533 0  1 0.09133596463859224 0  1 0.08619288104391448 0  1 0.08041996484521211 0  1 0.07394008421771697 0  1 0.06666666567302955 0  1 0.05850252932209174 0  1 0.04933859630113544 0  1 0.03905242821848202 0  1 0.02750659386753798 0  1 0.01454683679239736 0  1.015625 0 0  1.03125 0 0  1.046875 0 0  1.0625 0 0  1.078125 0 0  1.09375 0 0  1.109375 0 0  1.125 0 0  1.140625 0 0  1.15625 0 0  1.171875 0 0  1.1875 0 0  1.203125 0 0  1.21875 0 0  1.234375 0 0  1.25 0 0  1.265625 0 0  1.28125 0 0  1.296875 0 0  1.3125 0 0  1.328125 0 0  1.34375 0 0  1.359375 0 0  1.375 0 0  1.390625 0 0  1.40625 0 0  1.421875 0 0  1.4375 0 0  1.453125 0 0  1.46875 0 0  1.484375 0 0  1.515920751924515 0 0  1.531989369316721 0 0  1.54820720925872 0 0  1.564575665560501 0 0  1.581096138674279 0 0  1.597770029901263 0 0  1.614598783332311 0 0  1.631583831055205 0 0  1.64872661129721 0 0  1.666028606716533 0 0  1.683491276608443 0 0  1.701116134125304 0 0  1.718904673324128 0 0  1.736858414799339 0 0  1.754978895814663 0 0  1.773267661782904 0 0  1.791726281103402 0 0  1.810356325314689 0 0  1.8291593848892 0 0  1.848137076690385 0 0  1.867291007717254 0 0  1.886622833871288 0 0  1.90613418642363 0 0  1.925826753299799 0 0  1.945702199101513 0 0  1.96576223584749 0 0  1.986008569283268 0 0  2.006442931928877 0 0  2.02706707547783 0 0  2.047882750887917 0 0  2.06889175187935 0 0  2.090095860038271 0 0  2.111496891648636 0 0  2.133096679109554 0 0  2.154897066851056 0 0  2.176899916687499 0 0  2.199107102752146 0 0  2.22152053937028 0 0  2.244142122958061 0 0  2.266973806444078 0 0  2.290017523268154 0 0  2.313275249499252 0 0  2.336748971745516 0 0  2.360440702338606 0 0  2.384352453384031 0 0  2.408486280477412 0 0  2.432844240041185 0 0  2.457428414757088 0 0  2.482240901796653 0 0  2.507283830121838 0 0  2.532559332080812 0 0  2.558069568787417 0 0  2.583816724966441 0 0  2.60980299606584 0 0  2.636030600971886 0 0  2.662501790984011 0 0  2.689218818279327 0 0  2.716183964547616 0 0  2.743399548861297 0 0  2.77086788244719 0 0  2.798591312896326 0 0  2.826572223178268 0 0  2.854812990138617 0 0  2.883316031690714 0 0  2.912083780657189 0 0  2.941118704633482 0 0  2.970423276998917 0 0  3 0.02999999999994495 0  3 0.05999999999987042 0  3 0.089999999999783 0  3 0.119999999999701 0  3 0.149999999999619 0  3 0.179999999999692 0  3 0.2099999999997737 0  3 0.2399999999998511 0  3 0.2699999999999185 0  2.970138294777171 0.3 0  2.940375666438236 0.3 0  2.910711782853056 0.3 0  2.881146331305122 0.3 0  2.851678975030285 0.3 0  2.822309388626621 0.3 0  2.793037250095074 0.3 0  2.76386223529133 0.3 0  2.734784017903872 0.3 0  2.705802289276642 0.3 0  2.676916713794697 0.3 0  2.648126987654635 0.3 0  2.619432780406184 0.3 0  2.590833779385199 0.3 0  2.562329669847737 0.3 0  2.533920134950189 0.3 0  2.505604855727852 0.3 0  2.477383539822502 0.3 0  2.449255847639465 0.3 0  2.421221492569094 0.3 0  2.393280152486815 0.3 0  2.36543151914496 0.3 0  2.337675285481809 0.3 0  2.310011142385583 0.3 0  2.282438797441587 0.3 0  2.254957931061538 0.3 0  2.227568248063605 0.3 0  2.200269436651085 0.3 0  2.173061204949961 0.3 0  2.145943251515011 0.3 0  2.118915272469994 0.3 0  2.091976978084957 0.3 0  2.065128060700849 0.3 0  2.038368218849433 0.3 0  2.01169717777258 0.3 0  1.985114624111908 0.3 0  1.958620267850966 0.3 0  1.93221382054972 0.3 0  1.905894991850698 0.3 0  1.879663489459713 0.3 0  1.853519019126419 0.3 0  1.827461291053897 0.3 0  1.801490031354372 0.3 0  1.775604937580312 0.3 0  1.74980572560258 0.3 0  1.724092118631866 0.3 0  1.698463829173586 0.3 0  1.672920575782554 0.3 0  1.647462076974085 0.3 0  1.622088043536933 0.3 0  1.5967981978949 0.3 0  1.571592267767068 0.3 0  1.546469970305736 0.3 0  1.521431023814044 0.3 0  1.496475156230927 0.3 0  1.471602093687753 0.3 0  1.446811560490646 0.3 0  1.422103279101731 0.3 0  1.397476971708191 0.3 0  1.37293238939876 0.3 0  1.348469231419202 0.3 0  1.324087248732772 0.3 0  1.299786165921677 0.3 0  1.275565710847046 0.3 0  1.251425617644257 0.3 0  1.227365618676339 0.3 0  1.203385446174014 0.3 0  1.179484853067473 0.3 0  1.155663548773374 0.3 0  1.131921292279077 0.3 0  1.108257802159295 0.3 0  1.084672829009693 0.3 0  1.061166115303374 0.3 0  1.037737392995421 0.3 0  1.01438640299116 0.3 0  0.991112899770314 0.3 0  0.9679166155523955 0.3 0  0.944797284182564 0.3 0  0.921754678526042 0.3 0  0.8987885143602501 0.3 0  0.8758985548820624 0.3 0  0.8530845484099929 0.3 0  0.8303462351786988 0.3 0  0.8076833651172373 0.3 0  0.7850956864865304 0.3 0  0.7625829601354557 0.3 0  0.7401449314598274 0.3 0  0.717781337993959 0.3 0  0.6954919649675473 0.3 0  0.6732765357561226 0.3 0  0.6511348120768439 0.3 0  0.6290665642016573 0.3 0  0.6070715355430467 0.3 0  0.5851494825775325 0.3 0  0.5633001690203812 0.3 0  0.5415233562273221 0.3 0  0.5198187909431873 0.3 0  0.4981862401387795 0.3 0  0.4766254686134248 0.3 0  0.4551362360485234 0.3 0  0.4337182975262159 0.3 0  0.4123714223228037 0.3 0  0.3910953802377493 0.3 0  0.3698899313205595 0.3 0  0.3487548463710963 0.3 0  0.3276898864081783 0.3 0  0.3066948129116018 0.3 0  0.2857694003037476 0.3 0  0.2649134227095047 0.3 0  0.2441266417321288 0.3 0  0.2234088223399122 0.3 0  0.2027597568977288 0.3 0  0.1821792020676698 0.3 0  0.1616669305402443 0.3 0  0.1412227158799362 0.3 0  0.12084633013886 0.3 0  0.1005375673448281 0.3 0  0.08029618164595353 0.3 0  0.06012194778526769 0.3 0  0.04001466495039718 0.3 0  0.01997408913631205 0.3 0  0 0.2800000000000553 0  0 0.2600000000001105 0  0 0.2400000000001658 0  0 0.2200000000002211 0  0 0.2000000000002764 0  0 0.1800000000002244 0  0 0.1600000000001691 0  0 0.140000000000115 0  0 0.1200000000000564 0  1.133778471000506 0.01219539743990768 0  1.003741919047894 0.09354664821474232 0  0.9559421147150347 0.1035858189992458 0  0.9313792160389045 0.1037365237938103 0  0.9788461538460573 0.1033060829993555 0  0.9090102438250753 0.1037269304984056 0  0.8846304212778655 0.1043349840723655 0  0.8581503885465881 0.104741932962923 0  0.8286416220145676 0.1052762843984476 0  0.7982741772533339 0.1053575624517407 0  0.7708789559342691 0.1060290465840416 0  0.741870349714261 0.1078220590984258 0  0.7112469360040695 0.10685702926368 0  0.6783901541417233 0.1079959711853378 0  0.642884733623195 0.1075561996086514 0  0.6056235042367955 0.1085956039602543 0  0.5647007593786924 0.1083187281660325 0  1.1953125 0.01353164693413185 0  1.258148737344733 0.01268350115427042 0  1.320087046516829 0.01426312402966312 0  1.383495130751951 0.01432665475473204 0  1.4453125 0.01315663539200989 0  1.50886768312388 0.01395488397722681 0  0.9942307692307371 0.103330866937657 0  1.119309781943483 0.2802014914557878 0  1.572831235329714 0.01707210522554785 0  1.637611634353954 0.01209340368483431 0  1.709661292005932 0.0146870244871893 0  1.006561890631532 0.07068055446055937 0  1.784793444007901 0.01499371444634687 0  1.855459587353174 0.0
[...]
<PointData  Scalars="pressure"> 
<DataArray  type="Float64"  Name="pressure"  format="ascii">-6.6920923890701882e+00  -7.3622802890864794e+00  -6.9177469827486915e+00  -6.5566520065122882e+00  -4.9445778214555549e+00  0.0000000000000000e+00  0.0000000000000000e+00  -6.6920782431051231e+00  -6.6980151162719919e+00  -6.7038395220527640e+00  -6.7095672731405136e+00  -6.7151999852504654e+00  -6.7207392704065132e+00  -6.7261866765436986e+00  -6.7315437712079618e+00  -6.7368120665184605e+00  -6.7419930735171745e+00  -6.7470883187097348e+00  -6.7520992437396421e+00  -6.7570273105959560e+00  -6.7618739777346812e+00  -6.7666406628341198e+00  -6.7713288098304707e+00  -6.7759398126049906e+00  -6.7804751162443360e+00  -6.7849360884817802e+00  -6.7893241782659324e+00  -6.7936407525270956e+00  -6.7978873445156696e+00  -6.8020652594513775e+00  -6.8061758835383488e+00  -6.8102209259194870e+00  -6.8142017683708085e+00  -6.8181200088931124e+00  -6.8219769953203375e+00  -6.8257748180607445e+00  -6.8295147264008511e+00  -6.8331986805226688e+00  -6.8368283884691197e+00  -6.8404055856312773e+00  -6.8439329391725519e+00  -6.8474122914580171e+00  -6.8508453723798404e+00  -6.8542349561595177e+00  -6.8575834021997961e+00  -6.8608934455358250e+00  -6.8641682256327607e+00  -6.8674101437561292e+00  -6.8706228015392803e+00  -6.8738098979204993e+00  -6.8769737150878081e+00  -6.8801192591557232e+00  -6.8832509710240890e+00  -6.8863720580192247e+00  -6.8894887797515825e+00  -6.8926052337684647e+00  -6.8957250983401215e+00  -6.8988581540285496e+00  -6.9020043747199189e+00  -6.9051774287331638e+00  -6.9083811973308453e+00  -6.9116171124067600e+00  -6.9149003549193981e+00  -6.9182393004025835e+00  -6.9216357924284910e+00  -6.9251094126750905e+00  -6.9286554716853415e+00  -6.9322851742212608e+00  -6.9360369454820558e+00  -6.9398931890706823e+00  -6.9438751231534175e+00  -6.9479885142037396e+00  -6.9522553406317886e+00  -6.9566997840060143e+00  -6.9613291242691959e+00  -6.9661531929515972e+00  -6.9711942118042947e+00  -6.9764791125539842e+00  -6.9820288291705017e+00  -6.9878695529272443e+00  -6.9939984493592258e+00  -7.0004592589966057e+00  -7.0073082530388922e+00  -7.0145339610255331e+00  -7.0222162244862343e+00  -7.0303731265275866e+00  -7.0390330190501968e+00  -7.0482416178044405e+00  -7.0581041444266059e+00  -7.0686901023896560e+00  -7.0800228646198367e+00  -7.0922220607473365e+00  -7.1053964478007563e+00  -7.1196485359341422e+00  -7.1352128308236873e+00  -7.1521460440418068e+00  -7.1708836350452589e+00  -7.1915568948836475e+00  -7.2145890060343634e+00  -7.2405162150997926e+00  -7.2701021503321979e+00  -7.3037534543388229e+00  -7.3506084547419928e+00  -7.4831433508028962e+00  -7.5917584730335630e+00  -7.6615892881400756e+00  -7.7023676933343221e+00  -7.7117581136911468e+00  -7.6936869734673143e+00  -7.6489760237801505e+00  -7.5818555081054395e+00  -7.4936059874198317e+00  -7.3883690973629230e+00  -7.2637795630603801e+00  -7.1572520161126514e+00  -6.8040615076503244e+00  -6.7634050182833150e+00  -6.7244394449472118e+00  -6.6924647397766917e+00  -6.6636188635789217e+00  -6.6382344130993571e+00  -6.6149076981281594e+00  -6.5946409706757967e+00  -6.5779458493999989e+00  -6.5656623700627819e+00  -6.5586461291479665e+00  -6.5544263038544353e+00  -6.5455840275312012e+00  -6.5301871463713788e+00  -6.5095049247589811e+00  -6.4852125512110224e+00  -6.4570740871195333e+00  -6.4240525196746150e+00  -6.3873199396973304e+00  -6.3462034990918958e+00  -6.2989875749724904e+00  -6.2449101532626399e+00  -6.1834236647141196e+00  -6.1141943729686687e+00  -6.0381803401608014e+00  -5.9569026797221332e+00  -5.8723827755219666e+00  -5.7869267240142124e+00  -5.7026948393977790e+00  -5.6211300293226341e+00  -5.5433811214112803e+00  -5.4714642696311362e+00  -5.4035121781614297e+00  -5.3417155986833205e+00  -5.2845277235703998e+00  -5.2322922715660569e+00  -5.1818692607376438e+00  -5.1373395710455041e+00  -5.0949225766534365e+00  -5.0552305643414845e+00  -5.0173619753299761e+00  -4.9807982029069944e+00  -4.9070534567554063e+00  -4.8671111555398303e+00  -4.8237365072834253e+00  -4.7755252068293759e+00  -4.7234142242109476e+00  -4.6652133955056616e+00  -4.6019191657937446e+00  -4.5313537196789140e+00  -4.4583407882715216e+00  -4.3831745673158524e+00  -4.3067818076896041e+00  -4.2304552400951243e+00  -4.1556342961492376e+00  -4.0831658511614419e+00  -4.0137451723731230e+00  -3.9474643436468067e+00  -3.8844747084841327e+00  -3.8229614676495292e+00  -3.7662108414429301e+00  -3.7094506165151828e+00  -3.6557588414477333e+00  -3.6033915350504122e+00  -3.5510006258689644e+00  -3.4984701576092494e+00  -3.4435419049165366e+00  -3.3873651124147584e+00  -3.3255915009970378e+00  -3.2593439789105507e+00  -3.1881867187465947e+00  -3.1112610435753032e+00  -3.0325607676993007e+00  -2.9525134178122894e+00  -2.8720776758677218e+00  -2.7919895035002091e+00  -2.7137518914609315e+00  -2.6373751934377050e+00  -2.5632374140873639e+00  -2.4907864042511401e+00  -2.4199841234327670e+00  -2.3505725719897357e+00  -2.2822864963375289e+00  -2.2146945820698822e+00  -2.1475125400103439e+00  -2.0800375467632102e+00  -2.0115868393063412e+00  -1.9406110939571215e+00  -1.8664596448045045e+00  -1.7889165578922994e+00  -1.7075252483209031e+00  -1.6202452010588066e+00  -1.5327497233255472e+00  -1.4405670146192842e+00  -1.3496693968037139e+00  -1.2585846357059172e+00  -1.1660773687963342e+00  -1.0780837303543762e+00  -9.8859501944159800e-01  -9.0190449565852859e-01  -8.1554459725862394e-01  -7.2928992779832391e-01  -6.3914103704639136e-01  -5.5218161318207870e-01  -4.6124254858336766e-01  -3.6935238502386430e-01  -2.8025270171970068e-01  -1.8542892872632441e-01  -9.4085080727358231e-02  0.0000000000000000e+00  0.0000000000000000e+00  0.0000000000000000e+00  0.0000000000000000e+00  0.0000000000000000e+00  0.0000000000000000e+00  0.0000000000000000e+00  0.0000000000000000e+00  0.0000000000000000e+00  -9.9338677450826335e-02  -1.9546858727492666e-01  -2.9009558750656939e-01  -3.8622478661970117e-01  -4.8203743179551495e-01  -5.7806745332562770e-01  -6.7411714919043253e-01  -7.7024390456290348e-01  -8.6601528421171947e-01  -9.6085861338397416e-01  -1.0540626912965876e+00  -1.1450629942987844e+00  -1.2334839746803465e+00  -1.3192857724278955e+00  -1.4029164504999576e+00  -1.4851498066547606e+00  -1.5670650309919691e+00  -1.6498407077421886e+00  -1.7346178392205582e+00  -1.8227738652669547e+00  -1.9155309342031983e+00  -2.0137478382527489e+00  -2.1171682125621616e+00  -2.2243972419708942e+00  -2.3325554139327500e+00  -2.4388595779197981e+00  -2.5396472517956297e+00  -2.6330300341929069e+00  -2.7189740313073298e+00  -2.7982081227091844e+00  -2.8731041038183065e+00  -2.9470011601494965e+00  -3.0227233930819173e+00  -3.1026484401608578e+00  -3.1897191027914151e+00  -3.2825737605099885e+00  -3.3782880214740643e+00  -3.4806915834221903e+00  -3.5857033620430663e+00  -3.6902737634273852e+00  -3.7941143645768429e+00  -3.8898933093049282e+00  -3.9784423141509073e+00  -4.0593035494563239e+00  -4.1338249270622009e+00  -4.2045853547141183e+00  -4.2751204975326722e+00  -4.3466939020362911e+00  -4.4199648492169263e+00  -4.4970708236897829e+00  -4.5779182195989172e+00  -4.6624305676781361e+00  -4.7488803011124894e+00  -4.8411160367987067e+00  -4.9374060899130834e+00  -5.0373286264279109e+00  -5.1400730500539735e+00  -5.2442142470931428e+00  -5.3473683406924231e+00  -5.4474592025311379e+00  -5.5434449471044900e+00  -5.6349024588011591e+00  -5.7211961265000877e+00  -5.8046549809127876e+00  -5.8862546060234102e+00  -5.9674277082363991e+00  -6.0474128894457388e+00  -6.1276145469846410e+00  -6.2074471454856832e+00  -6.2866200824026057e+00  -6.3643258481827623e+00  -6.4398941067400255e+00  -6.5141313546622550e+00  -6.5846648962888663e+00  -6.6498478644520276e+00  -6.7079962499885344e+00  -6.7584883917280392e+00  -6.8010593279474927e+00  -6.8361919970353711e+00  -6.8615026928953196e+00  -6.8799870459752794e+00  -6.8925529255812270e+00  -6.9005156935246692e+00  -6.9047085589790500e+00  -6.9059615714703755e+00  -6.9050335285650712e+00  -6.9025773082583122e+00  -6.8990060125369803e+00  -6.8945633584922064e+00  -6.8895529525589776e+00  -6.8841042218439590e+00  -6.8783566942382013e+00  -6.8723976657742982e+00  -6.8662845533115160e+00  -6.8600679231176516e+00  -6.8537865862702398e+00  -6.8474610785220040e+00  -6.8411069583206539e+00  -6.8347406564154705e+00  -6.8283703323910716e+00  -6.8220031379111878e+00  -6.8156422836220489e+00  -6.8092926188732381e+00  -6.8029563920720202e+00  -6.7966354512584077e+00  -6.7903311799397175e+00  -6.7840443175625831e+00  -6.7777762121655032e+00  -6.7715265521107195e+00  -6.7652964598385674e+00  -6.7590856862730089e+00  -6.7528946129730603e+00  -6.7467234411612891e+00  -6.7405720624341097e+00  -6.7344406433946205e+00  -6.7283291714158171e+00  -6.7222376454623580e+00  -6.7161660458007004e+00  -6.7101143364843825e+00  -6.7040824872530216e+00  -6.6980704656475680e+00  -6.6920782851119105e+00  -6.6920788615264772e+00  -6.6920803073758197e+00  -6.6920825628939005e+00  -6.6920853133237186e+00  -6.6920880596165144e+00  -6.6920903231058988e+00  -6.6920917580832198e+00  -6.6920923363653211e+00  -6.3635272439328974e+00  -6.7799731463389943e+00  -7.5211006612105580e+00  -7.2274119168635949e+00  -7.5280851393024300e+00  -7.1274881073275580e+00  -7.0633552857605100e+00  -7.0183457654141304e+00  -6.9842287625691712e+00  -6.9591658771920502e+00  -6.9417808724810568e+00  -6.9267245470255450e+00  -6.9132489050832318e+00  -6.9004875762425888e+00  -6.8879241669976823e+00  -6.8755536269160089e+00  -6.8625231048338300e+00  -6.1505565242998976e+00  -5.8302538966889994e+00  -5.5097994863580437e+00  -5.2559087425917461e+00  -5.0739692277856951e+00  -4.9223298799118709e+00  -7.1418929447060941e+00  -6.3271497300280775e+00  -4.7508341546847896e+00  -4.5074061651424993e+00  -4.1959859840520775e+00  -6.6515999297459238e+00  -3.9080381286990131e+00  -3.6883953576958954e+00  -6.8492352554290745e+00  -3.4707661314951892e+00  -6.0061692852588937e+00  -5.6774218732546293e+00  -3.2124190163664799e+00  -5.2954217671815824e+00  -6.8348017115720507e+00  -4.8063589130963233e+00  -2.9175616753334350e+00  -6.8207114465536556e+00  -6.4688872061761069e+00  -2.5998381364362810e+00  -4.3799989680065119e+00  -6.5469406472301106e+00  -6.8045813611840442e+00  -2.3154685806889757e+00  -3.9364103285817214e+00  -6.7868344508058440e+00  -3.6460635247831061e+00  -2.0451212559869143e+00  -3.3232015790197056e+00  -6.7790506805435564e+00  -1.7394456085080592e+00  -6.7689851383898185e+00  -3.0599470186771538e+00  -6.8726913831718788e+00  -6.9041034217880410e+00  -2.8327666210581142e+00  -1.3982678778188187e+00  -6.7490966527275260e+00  -6.7342956736410926e+00  -4.1684575983732035e+00  -1.1225929628733762e+00  -8.4939652324711057e-01  -6.9013204634819179e+00  -2.5861845098105003e+00  -2.1649345630463470e+00  -6.8867562931312216e+00  -7.3231762465728059e+00  -7.6394534723922716e+00  -6.8695528473046554e+00  -1.8674420306433244e+00  -6.0002830376628713e-01  -6.8451617982490021e+00  -1.5251347389346386e+00  -6.8126440294992374e+00  -1.2766680013636573e+00  -6.7809099252628577e+00  -1.0086676135530581e+00  -6.7622926292248255e+00  -6.7254139066612950e+00  -6.7435023795357925e+00  -7.2238282197169978e-01  -6.6971284512991094e+00  -8.9239627597249627e-02  -6.7177800661999596e+00  -6.5841240709090512e+00  -4.4274115978235234e-01  -3.1780745329221050e-01  -6.7043671706365950e+00  -6.5220406459575742e+00  -6.6752791724224014e+00  -6.1686955687305041e+00  -6.9061438287782630e+00  -6.8569117265000950e+00  -6.8318678387380105e+00  -6.7990577383643807e+00  -4.6186552617028207e+00  -5.0861676211591273e+00  -5.4876020681816842e+00  -5.8445323510871319e+00  -6.7594509764268453e+00  -6.7781267271040839e+00  -2.3885467478000595e+00  -1.6911862870306587e+00  -6.7952998807082832e+00  -1.5824972652054148e+00  -6.7132368239620792e+00  -1.8998574438459821e+00  -2.1801160347078250e+00  -6.8125168400673237e+00  -2.4546740817117207e+00  -6.6971588501391013e+00  -2.7551345041634798e+00  -6.8275442175146361e+00  -3.0845894220095773e+00  -3.3495012597532776e+00  -4.8449167700604567e+00  -3.5812542847043254e+00  -6.8423043054414432e+00  -3.7939630101788415e+00  -4.0492131798706339e+00  -4.3508031913217220e+00  -6.8560217847879619e+00  -4.6313699101213306e+00  -7.3515017739976291e-02  -6.8690125954535635e+00  -6.8817230464928389e+00  -6.8944247815992936e+00  -6.9063975610354200e+00  -6.9201502216568134e+00  -6.9341876818743575e+00  -6.9505432526595872e+00  -6.9738153919100476e+00  -6.2693148857936638e+00  -7.0038514065197628e+00  -7.0437705394890324e+00  -7.0987833750757385e+00  -6.0000854944217030e+00  -7.1780145100111330e+00  -5.3756573298406432e+00  -5.6563825930734390e+00  -5.1659873961063418e+00  -4.9976651287571183e+00  -6.6967362218850992e+00  -7.3600350122975868e+00  -9.1486187339708341e-02  -6.7067420733400560e+00  -2.4199356724755308e-01  -6.5513206980412724e+00  -7.3150803739577955e-02  -6.6966016901601630e+00  -6.5393353428409879e+00  -6.5354794582205740e+00  -6.5181724855907337e+00  -6.5345720843635666e+00  -6.5170218559459441e+00  -6.5358648341387937e+00  -6.5160715973130321e+00  -6.5378054949975164e+00  -6.5161969589985125e+00  -6.5390810607756977e+00  -6.5149799330151019e+00  -6.5387464838604705e+00  -6.5112839411114365e+00  -6.5348218409487329e+00  -6.5047668334509536e+00  -6.5276338549260950e+00  -6.4951929863524622e+00  -6.5189191348034647e+00  -6.4842747816360671e+00  -6.5073649034563985e+00  -6.4693833207806817e+00  -6.5519542691653792e+00  -6.4494814335133244e+00  -6.4313662239515343e+00  -6.5341264754819317e+00  -6.5838195124178780e+00  -6.4151289756359455e+00  -6.3898665633177814e+00  -6.3794914373638427e+00  -6.3432063262133020e+00  -6.3318829244679673e+00  -6.2871346128581136e+00  -6.2702821854469608e+00  -6.2214817314261524e+00  -6.1937696822775345e+00  -6.1384205609427287e+00  -6.1006005328853110e+00  -6.0420363436278706e+00  -5.9968548998946067e+00  -5.9446526256587608e+00  -5.8887367655794209e+00  -5.8379974788513636e+00  -5.7790740968646990e+00  -5.7410244726673145e+00  -5.6748248009013871e+00  -5.6457251194547187e+00  -5.5765955009260075e+00  -5.5590774663194482e+00  -5.4864856727527771e+00  -5.4757291836538249e+00  -5.4061661291606304e+00  -6.5569584852224745e+00  -6.6045014112242528e+00  -5.3965176920666167e+00  -5.3223205043617883e+00  -5.3221297029354373e+00  -5.2564730419981327e+00  -5.2551641987685711e+00  -5.1954268920002233e+00  -5.1905442775490682e+00  -5.1373036050834253e+00  -5.1285724086015252e+00  -5.0824340769704817e+00  -6.4029367794780088e+00  -5.0687818467406665e+00  -5.0299886348474434e+00  -5.0102241211788154e+00  -4.9785465316131168e+00  -4.9517029909425734e+00  -4.9263703272501411e+00  -6.5753375443215027e+00  -6.6219268406166307e+00  -6.5669616578466172e+00  -4.8916059704685848e+00  -4.8710303255553598e+00  -6.6335931582925207e+00  -4.8291944424297402e+00  -4.8113561063215577e+00  -4.7631612269365142e+00  -4.7463650861474447e+00  -4.6937190912856144e+00  -4.6753260463172754e+00  -6.2455172385435036e+00  -4.6200704074271481e+00  -4.5993441827242760e+00  -4.5454964567713780e+00  -4.5202055650947761e+00  -4.4699384502605151e+00  -4.4395596176446714e+00  -6.4834441788884432e+00  -5.9893010788182925e+00  -4.3952481395802616e+00  -4.3600584068632680e+00  -6.5913385518651708e+00  -6.6452374876965727e+00  -6.5413423909718613e+00  -5.7116922132699406e+00  -4.3232049876014784e+00  -4.2815222313496522e+00  -4.2546827886306824e+00  -4.2065976101254172e+00  -4.1888266156071072e+00  -4.1367720705232163e+00  -4.9040714107564582e+00  -4.3127219473048459e+00  -4.7269277081417380e+00  -5.0442332047850220e+00  -4.1243642084605492e+00  -4.0688632297612113e+00  -4.0773491628489955e+00  -4.0064095230954191e+00  -4.0004337424701184e+00  -3.9368355803060431e+00  -3.9299650060307747e+00  -3.8652086324519104e+00  -3.8563446270300332e+00  -3.7918956756533966e+00  -3.7792320833017619e+00  -3.7174065734418056e+00  -3.6986645845430175e+00  -3.6419375814591022e+00  -3.6161787115829589e+00  -3.5650519546291117e+00  -3.5318294682500353e+00  -3.4876075636039126e+00  -3.4474220031701215e+00  -3.4091742111612304e+00  -3.3637736509852556e+00  -3.3304836435832263e+00  -3.2808923011016757e+00  -3.2506762204770148e+00  -5.2025569413808181e+00  -5.4669392996813064e+00  -3.1999989525463235e+00  -3.1709515858984840e+00  -3.1216843673590717e+00  -3.0909020558619473e+00  -6.3090530899901225e+00  -3.0449791784565292e+00  -3.0120615531947199e+00  -5.6087808770883463e+00  -5.9404597464482078e+00  -6.6052712679089884e+00  -6.6515870151037424e+00  -6.6950479028089580e+00  -6.7089896791066392e+00  -6.7469217896232800e+00  -6.7611277560112351e+00  -6.7994423077650401e+00  -6.8106181009024693e+00  -6.8537738652097282e+00  -6.8563709535515676e+00  -6.9050541092801714e+00  -6.8959592985643168e+00  -6.9496936434282768e+00  -6.9321685805974864e+00  -6.9933568018039303e+00  -6.9648783796521299e+00  -7.0107843940273042e+00  -6.9790686877543369e+00  -7.0223404544055992e+00  -6.9962542940525800e+00  -7.0280505029833433e+00  -7.0018470756374525e+00  -7.0274575731679354e+00  -7.0028236999478493e+00  -7.0229585640235346e+00  -7.0006917906072692e+00  -7.0165514513927398e+00  -6.9967817581624123e+00  -6.9737662252296895e+00  -6.9810438880015822e+00  -6.9790469598166922e+00  -6.9915876886614257e+00  -6.9759241894030506e+00  -6.9856127119835829e+00  -6.9719103033422494e+00  -6.9794691853989939e+00  -6.9674068754075726e+00  -6.9625548153508996e+00  -6.9750465010701959e+00  -6.9626961663467490e+00  -6.9671114177428377e+00  -6.9574137663710252e+00  -6.9525676369959681e+00  -6.9485304552663507e+00  -6.9522131480999674e+00  -6.9443459365558597e+00  -6.9467854279945822e+00  -6.9399540866575986e+00  -6.7806370090375880e+00  -6.9415071438983507e+00  -6.9354995032541371e+00  -6.9333166022535533e+00  -6.9295155985163923e+00  -6.9311222586177408e+00  -6.9256048927916778e+00  -6.9267328658292477e+00  -6.9216100482712255e+00  -7.0097140125172483e+00  -6.9231891059670616e+00  -6.9048247332843040e+00  -7.0538556037360296e+00  -6.9224677223014259e+00  -6.9175616250878615e+00  -6.9167516428421569e+00  -6.9129411824592966e+00  -6.9134511611580898e+00  -6.9090741419814696e+00  -6.9092859521552539e+00  -6.9051199186944343e+00  -6.9049023276923887e+00  -6.9011335721900711e+00  -6.9010630817667291e+00  -6.8972470058654398e+00  -6.9436813766974677e+00  -6.8969659627580651e+00  -6.8933339204520516e+00  -7.0566742953390262e+00  -6.8094322189352861e+00  -6.9273059704905053e+00  -7.0388351201396624e+00  -6.8929262952231669e+00  -6.8892883878011544e+00  -6.8899690265786662e+00  -6.8857425775395917e+00  -6.8853051367786744e+00  -6.8816549296660643e+00  -6.8821213000686159e+00  -6.8780723064871303e+00  -6.8775499038910359e+00  -6.8740065232518441e+00  -6.9928826623834830e+00  -6.8734460885303967e+00  -6.8698595615534552e+00  -6.9007619697343179e+00  -6.9529235638519769e+00  -5.2503086610806591e+00  -6.9769874709703847e+00  -6.8704571139720940e+00  -6.8663075846328994e+00  -6.8656912428108852e+00  -6.8621519580267609e+00  -2.9716633739070977e+00  -2.9352599459380171e+00  -2.9018216420961811e+00  -2.8595731895483447e+00  -2.8324282988163136e+00  -2.7845791554053174e+00  -6.8613569103656662e+00  -6.8578744070866442e+00  -4.9163026774141274e+00  -6.8585689330335260e+00  -6.8543248542308826e+00  -6.8537498302924522e+00  -6.8501041594063983e+00  -6.5575958291718033e+00  -6.6826856513454240e+00  -6.9322109848147004e+00  -3.6601392759353932e+00  -2.7621620152277653e+00  -2.7095200314590344e+00  -4.0160081956488378e+00  -3.3020746680004205e+00  -2.7294855425812292e+00  -2.6508320683706250e+00  -2.6326041964814628e+00  -2.5711074233292410e+00  -2.5523250098915926e+00  -2.4897675355878564e+00  -2.4686983248878245e+00  -2.4086308211201302e+00  -2.3822003919147892e+00  -2.3258921580228407e+00  -2.2941545187086505e+00  -2.2424847793193470e+00  -2.2058866574004705e+00  -2.1609130012247855e+00  -2.1187636875492806e+00  -2.0808130430739249e+00  -2.034657826580442