<?xml version="1.0"?>
<VTKFile type="UnstructuredGrid"  version="0.1"  >
<UnstructuredGrid>
<Piece  NumberOfPoints="2886" NumberOfCells="5412">
<Points>
<DataArray  type="Float64"  NumberOfComponents="3"  format="ascii">0 0.1 0  0.98 0.1 0  1 0.1 0  1 0 0  1.5 0 0  3 0 0  3 0.3 0  0 0.3 0  0.01975375321854102 0.1 0  0.03918897458218897 0.1 0  0.05831079002627837 0.1 0  0.07712425666319796 0.1 0  0.0956343475259058 0.1 0  0.1138459546796227 0.1 0  0.1317638870668193 0.1 0  0.1493928840275937 0.1 0  0.1667376092280033 0.1 0  0.1838026357802664 0.1 0  0.2005924801287244 0.1 0  0.2171115811543574 0.1 0  0.2333643037107681 0.1 0  0.2493549444060462 0.1 0  0.2650877293306821 0.1 0  0.2805668058011438 0.1 0  0.2957962848620976 0.1 0  0.3107801766802674 0.1 0  0.3255224447361181 0.1 0  0.3400269848175519 0.1 0  0.3542976327080778 0.1 0  0.3683381609158136 0.1 0  0.3821522744564845 0.1 0  0.3957436316838916 0.1 0  0.4091158196437086 0.1 0  0.4222723742184605 0.1 0  0.4352167733293057 0.1 0  0.4479524348643424 0.1 0  0.4604827295467524 0.1 0  0.4728109659990664 0.1 0  0.4849404035409129 0.1 0  0.4968742471455402 0.1 0  0.508615651843175 0.1 0  0.520167721130924 0.1 0  0.5315335063628542 0.1 0  0.5427160117228604 0.1 0  0.5537181940261912 0.1 0  0.564542961924507 0.1 0  0.575193173270606 0.1 0  0.5856716438765114 0.1 0  0.5959811458006617 0.1 0  0.6061243988680743 0.1 0  0.6161040893285659 0.1 0  0.6259228503970299 0.1 0  0.6355832809287655 0.1 0  0.6450879281079505 0.1 0  0.6544393102991295 0.1 0  0.663639896558931 0.1 0  0.6726921201956305 0.1 0  0.6815983691630338 0.1 0  0.6903610031396646 0.1 0  0.6989823343332418 0.1 0  0.7074646404270378 0.1 0  0.7158101645005117 0.1 0  0.7240211149852543 0.1 0  0.7320996585612525 0.1 0  0.7400479319727645 0.1 0  0.7478680336617921 0.1 0  0.755562036504958 0.1 0  0.7631319665092091 0.1 0  0.7705798279317605 0.1 0  0.777907588066146 0.1 0  0.7851171851013118 0.1 0  0.7922105226004981 0.1 0  0.7991894774550319 0.1 0  0.8060558928136696 0.1 0  0.812811583201334 0.1 0  0.8194583352091183 0.1 0  0.8259979035038147 0.1 0  0.8324320194413813 0.1 0  0.8387623808293405 0.1 0  0.8449906627004957 0.1 0  0.8511185094880469 0.1 0  0.8571475426008311 0.1 0  0.8630793533568246 0.1 0  0.8689155114558531 0.1 0  0.8746575581239063 0.1 0  0.8803070109173519 0.1 0  0.885865363938836 0.1 0  0.8913340851680313 0.1 0  0.8967146206523592 0.1 0  0.9020083930695622 0.1 0  0.9072167995950768 0.1 0  0.9123412183131177 0.1 0  0.9173830029719022 0.1 0  0.9223434865647732 0.1 0  0.9272239785872722 0.1 0  0.9320257720706087 0.1 0  0.9367501330378739 0.1 0  0.9413983102716995 0.1 0  0.9459715351562933 0.1 0  0.9504710127113115 0.1 0  0.9548979346500661 0.1 0  0.9592534708344373 0.1 0  0.9635387708980176 0.1 0  0.9677549682252325 0.1 0  0.971903177251235 0.1 0  0.9759844952956497 0.1 0  0.9840000000000086 0.1 0  0.987999999999974 0.1 0  0.9919999999999393 0.1 0  0.9959999999999913 0.1 0  1 0.09591793123533533 0  1 0.09133596463859224 0  1 0.08619288104391448 0  1 0.08041996484521211 0  1 0.07394008421771697 0  1 0.06666666567302955 0  1 0.05850252932209174 0  1 0.04933859630113544 0  1 0.03905242821848202 0  1 0.02750659386753798 0  1 0.01454683679239736 0  1.015625 0 0  1.03125 0 0  1.046875 0 0  1.0625 0 0  1.078125 0 0  1.09375 0 0  1.109375 0 0  1.125 0 0  1.140625 0 0  1.15625 0 0  1.171875 0 0  1.1875 0 0  1.203125 0 0  1.21875 0 0  1.234375 0 0  1.25 0 0  1.265625 0 0  1.28125 0 0  1.296875 0 0  1.3125 0 0  1.328125 0 0  1.34375 0 0  1.359375 0 0  1.375 0 0  1.390625 0 0  1.40625 0 0  1.421875 0 0  1.4375 0 0  1.453125 0 0  1.46875 0 0  1.484375 0 0  1.515920751924515 0 0  1.531989369316721 0 0  1.54820720925872 0 0  1.564575665560501 0 0  1.581096138674279 0 0  1.597770029901263 0 0  1.614598783332311 0 0  1.631583831055205 0 0  1.64872661129721 0 0  1.666028606716533 0 0  1.683491276608443 0 0  1.701116134125304 0 0  1.718904673324128 0 0  1.736858414799339 0 0  1.754978895814663 0 0  1.773267661782904 0 0  1.791726281103402 0 0  1.810356325314689 0 0  1.8291593848892 0 0  1.848137076690385 0 0  1.867291007717254 0 0  1.886622833871288 0 0  1.90613418642363 0 0  1.925826753299799 0 0  1.945702199101513 0 0  1.96576223584749 0 0  1.986008569283268 0 0  2.006442931928877 0 0  2.02706707547783 0 0  2.047882750887917 0 0  2.06889175187935 0 0  2.090095860038271 0 0  2.111496891648636 0 0  2.133096679109554 0 0  2.154897066851056 0 0  2.176899916687499 0 0  2.199107102752146 0 0  2.22152053937028 0 0  2.244142122958061 0 0  2.266973806444078 0 0  2.290017523268154 0 0  2.313275249499252 0 0  2.336748971745516 0 0  2.360440702338606 0 0  2.384352453384031 0 0  2.408486280477412 0 0  2.432844240041185 0 0  2.457428414757088 0 0  2.482240901796653 0 0  2.507283830121838 0 0  2.532559332080812 0 0  2.558069568787417 0 0  2.583816724966441 0 0  2.60980299606584 0 0  2.636030600971886 0 0  2.662501790984011 0 0  2.689218818279327 0 0  2.716183964547616 0 0  2.743399548861297 0 0  2.77086788244719 0 0  2.798591312896326 0 0  2.826572223178268 0 0  2.854812990138617 0 0  2.883316031690714 0 0  2.912083780657189 0 0  2.941118704633482 0 0  2.970423276998917 0 0  3 0.02999999999994495 0  3 0.05999999999987042 0  3 0.089999999999783 0  3 0.119999999999701 0  3 0.149999999999619 0  3 0.179999999999692 0  3 0.2099999999997737 0  3 0.2399999999998511 0  3 0.2699999999999185 0  2.970138294777171 0.3 0  2.940375666438236 0.3 0  2.910711782853056 0.3 0  2.881146331305122 0.3 0  2.851678975030285 0.3 0  2.822309388626621 0.3 0  2.793037250095074 0.3 0  2.76386223529133 0.3 0  2.734784017903872 0.3 0  2.705802289276642 0.3 0  2.676916713794697 0.3 0  2.648126987654635 0.3 0  2.619432780406184 0.3 0  2.590833779385199 0.3 0  2.562329669847737 0.3 0  2.533920134950189 0.3 0  2.505604855727852 0.3 0  2.477383539822502 0.3 0  2.449255847639465 0.3 0  2.421221492569094 0.3 0  2.393280152486815 0.3 0  2.36543151914496 0.3 0  2.337675285481809 0.3 0  2.310011142385583 0.3 0  2.282438797441587 0.3 0  2.254957931061538 0.3 0  2.227568248063605 0.3 0  2.200269436651085 0.3 0  2.173061204949961 0.3 0  2.145943251515011 0.3 0  2.118915272469994 0.3 0  2.091976978084957 0.3 0  2.065128060700849 0.3 0  2.038368218849433 0.3 0  2.01169717777258 0.3 0  1.985114624111908 0.3 0  1.958620267850966 0.3 0  1.93221382054972 0.3 0  1.905894991850698 0.3 0  1.879663489459713 0.3 0  1.853519019126419 0.3 0  1.827461291053897 0.3 0  1.801490031354372 0.3 0  1.775604937580312 0.3 0  1.74980572560258 0.3 0  1.724092118631866 0.3 0  1.698463829173586 0.3 0  1.672920575782554 0.3 0  1.647462076974085 0.3 0  1.622088043536933 0.3 0  1.5967981978949 0.3 0  1.571592267767068 0.3 0  1.546469970305736 0.3 0  1.521431023814044 0.3 0  1.496475156230927 0.3 0  1.471602093687753 0.3 0  1.446811560490646 0.3 0  1.422103279101731 0.3 0  1.397476971708191 0.3 0  1.37293238939876 0.3 0  1.348469231419202 0.3 0  1.324087248732772 0.3 0  1.299786165921677 0.3 0  1.275565710847046 0.3 0  1.251425617644257 0.3 0  1.227365618676339 0.3 0  1.203385446174014 0.3 0  1.179484853067473 0.3 0  1.155663548773374 0.3 0  1.131921292279077 0.3 0  1.108257802159295 0.3 0  1.084672829009693 0.3 0  1.061166115303374 0.3 0  1.037737392995421 0.3 0  1.01438640299116 0.3 0  0.991112899770314 0.3 0  0.9679166155523955 0.3 0  0.944797284182564 0.3 0  0.921754678526042 0.3 0  0.8987885143602501 0.3 0  0.8758985548820624 0.3 0  0.8530845484099929 0.3 0  0.8303462351786988 0.3 0  0.8076833651172373 0.3 0  0.7850956864865304 0.3 0  0.7625829601354557 0.3 0  0.7401449314598274 0.3 0  0.717781337993959 0.3 0  0.6954919649675473 0.3 0  0.6732765357561226 0.3 0  0.6511348120768439 0.3 0  0.6290665642016573 0.3 0  0.6070715355430467 0.3 0  0.5851494825775325 0.3 0  0.5633001690203812 0.3 0  0.5415233562273221 0.3 0  0.5198187909431873 0.3 0  0.4981862401387795 0.3 0  0.4766254686134248 0.3 0  0.4551362360485234 0.3 0  0.4337182975262159 0.3 0  0.4123714223228037 0.3 0  0.3910953802377493 0.3 0  0.3698899313205595 0.3 0  0.3487548463710963 0.3 0  0.3276898864081783 0.3 0  0.3066948129116018 0.3 0  0.2857694003037476 0.3 0  0.2649134227095047 0.3 0  0.2441266417321288 0.3 0  0.2234088223399122 0.3 0  0.2027597568977288 0.3 0  0.1821792020676698 0.3 0  0.1616669305402443 0.3 0  0.1412227158799362 0.3 0  0.12084633013886 0.3 0  0.1005375673448281 0.3 0  0.08029618164595353 0.3 0  0.06012194778526769 0.3 0  0.04001466495039718 0.3 0  0.01997408913631205 0.3 0  0 0.2800000000000553 0  0 0.2600000000001105 0  0 0.2400000000001658 0  0 0.2200000000002211 0  0 0.2000000000002764 0  0 0.1800000000002244 0  0 0.1600000000001691 0  0 0.140000000000115 0  0 0.1200000000000564 0  1.13346801534201 0.01255848438672509 0  1.003577645172735 0.09351054173913405 0  0.9777559943702486 0.1034978156913738 0  0.9524533750752109 0.1040889939962738 0  0.9296242411226409 0.1041520033606139 0  0.9046110503652111 0.104409422380137 0  0.8777709649694228 0.1053360318797398 0  0.8483859145648608 0.1061007868330701 0  0.8162363822948977 0.1052777104363292 0  0.7893110024210437 0.1060761643971561 0  0.7587949382612539 0.1067265405088633 0  0.7280603867732535 0.1069398153264939 0  0.6947001989413015 0.1075609887579097 0  0.6590363283767549 0.1076715322596598 0  0.6210028614493155 0.1072970410408442 0  1.1953125 0.01353164693413185 0  1.258193991486058 0.01269648635163345 0  1.3201967268638 0.01407907077719561 0  1.383538555392096 0.01434101079053473 0  1.445312500000001 0.01303671693628424 0  1.508925448095738 0.01398525724792267 0  0.9939176689634008 0.1034638089837981 0  1.120967497222226 0.2796788492172345 0  1.572835902117391 0.01424132418857359 0  1.637573277451887 0.01212536916586023 0  1.709730776795181 0.01466855431023635 0  1.005631976950563 0.07074019818158772 0  1.784944696816299 0.01454708406461822 0  0.5805605730631225 0.1101465090472147 0  1.855621181165637 0.01550931272897607 0  0.5366111276616774 0.1096761308243709 0  1.935200147913231 0.01760344159641829 0  1.214922267975168 0.2799787705802257 0  1.31178773425331 0.2792
[...]
<PointData  Scalars="pressure"> 
<DataArray  type="Float64"  Name="pressure"  format="ascii">2.6043269706267750e-02  -9.6349134891402211e-01  -1.0572206014221824e-02  -7.4668980686153801e-04  2.3668102947507624e-02  0.0000000000000000e+00  0.0000000000000000e+00  2.6121358196182224e-02  2.0117184913115708e-02  1.4285898829207975e-02  8.5475601736783452e-03  2.9005709991786225e-03  -2.6567936816527908e-03  -8.1261244913255273e-03  -1.3508777979034523e-02  -1.8806699300195958e-02  -2.4021249099633220e-02  -2.9153978498501973e-02  -3.4206777858378092e-02  -3.9181172563976845e-02  -4.4078525003780511e-02  -4.8900914004723024e-02  -5.3649928637062215e-02  -5.8326501350346380e-02  -6.2933601780532186e-02  -6.7472325098216157e-02  -7.1944426158960822e-02  -7.6352479892773870e-02  -8.0697774948829321e-02  -8.4981435388352136e-02  -8.9207114219667025e-02  -9.3375734560755749e-02  -9.7490643234741686e-02  -1.0155329353747622e-01  -1.0556477592649037e-01  -1.0952873076723804e-01  -1.1344800223213322e-01  -1.1732419454406100e-01  -1.2115995714364459e-01  -1.2495878085747640e-01  -1.2872214503897436e-01  -1.3245431479599892e-01  -1.3615742622145305e-01  -1.3983544599368589e-01  -1.4349135500609950e-01  -1.4712409413384314e-01  -1.5074518329830425e-01  -1.5435308257734440e-01  -1.5795200173507379e-01  -1.6154813809525853e-01  -1.6514485496449666e-01  -1.6873953169394462e-01  -1.7234755375404986e-01  -1.7596696550658669e-01  -1.7960325144612926e-01  -1.8326221458242348e-01  -1.8694828017177301e-01  -1.9066679875544071e-01  -1.9442486596116393e-01  -1.9822706725843631e-01  -2.0207852193372547e-01  -2.0598462644685717e-01  -2.0995853963863578e-01  -2.1399940089390940e-01  -2.1811768273579482e-01  -2.2231579020605816e-01  -2.2661514194855475e-01  -2.3101723965610893e-01  -2.3552010763517200e-01  -2.4014313829031816e-01  -2.4490430683154107e-01  -2.4979666566623315e-01  -2.5484700256742099e-01  -2.6006408486778793e-01  -2.6544975636929236e-01  -2.7102784592327417e-01  -2.7681257603162546e-01  -2.8281915889215670e-01  -2.8907873687531865e-01  -2.9559879477504197e-01  -3.0238968129726707e-01  -3.0946795639180796e-01  -3.1690952693269769e-01  -3.2470669788964446e-01  -3.3288702599518938e-01  -3.4150502586418902e-01  -3.5058941339804500e-01  -3.6019056153624368e-01  -3.7035862727276597e-01  -3.8118812152185694e-01  -3.9273474766378913e-01  -4.0506200543220366e-01  -4.1831790995243556e-01  -4.3262516151080688e-01  -4.4813916745036636e-01  -4.6506951156489407e-01  -4.8367145678092094e-01  -5.0427880642689782e-01  -5.2735112360023595e-01  -5.5352289781936870e-01  -5.8369081641998755e-01  -6.1909242255546770e-01  -6.6218204807120618e-01  -7.1652185021794934e-01  -7.8742343222579880e-01  -9.1296866852391734e-01  -1.9884965665904002e+00  -1.7694986393238208e+00  -1.2200823933603049e+00  -7.0552021281396537e-01  -1.5507601909330335e-01  -6.5011597025576184e-02  -4.7807652672532078e-02  -3.1672439134387602e-02  -2.1598267349568604e-02  -1.4563073147070794e-02  -9.3996093598434898e-03  -5.2343127751839479e-03  -2.0046491433483968e-03  -3.2906932379763823e-05  4.6563669379773014e-05  -1.7187091784899777e-03  -1.5691666880069584e-03  4.7903485933317838e-04  4.4145123337132001e-03  1.0278706848987696e-02  1.7966613294271915e-02  2.7275499660414804e-02  3.7833962031239621e-02  4.8920595398224326e-02  5.9833278395244389e-02  6.9950270378001084e-02  7.8710270654753514e-02  8.5766003469997479e-02  9.0897485464511249e-02  9.4005879112127669e-02  9.5180860147491567e-02  9.4592126335018525e-02  9.2459487060496989e-02  8.9092007462461265e-02  8.4716610699201209e-02  7.9546099910333193e-02  7.4000796401722815e-02  6.8081414998123646e-02  6.2131195306809869e-02  5.6254553550101859e-02  5.0566214646074276e-02  4.5130934670232624e-02  4.0041931946486413e-02  3.5324603367671979e-02  3.1023111034102543e-02  2.7137741365671882e-02  2.0552020738662392e-02  1.7821630670522486e-02  1.5476610174160903e-02  1.3476289589836817e-02  1.1818840457517632e-02  1.0520911103029723e-02  9.4579095612770236e-03  8.6848813566457773e-03  8.1859628404695843e-03  7.9148272935923442e-03  7.8271575219006732e-03  7.9258190481482603e-03  8.1921485298838501e-03  8.5944727603002192e-03  9.1191152957074747e-03  9.7504971357635396e-03  1.0462524606035452e-02  1.1249453811713854e-02  1.2095834538893268e-02  1.2981149654431871e-02  1.3902265239483911e-02  1.4841006604342654e-02  1.5785170590587577e-02  1.6734140555083252e-02  1.7667214734536019e-02  1.8590560033415204e-02  1.9479457033039774e-02  2.0339395300472813e-02  2.1158943423483349e-02  2.1935711492285296e-02  2.2665358729998097e-02  2.3340450016365786e-02  2.3957248771686281e-02  2.4512166133013366e-02  2.5002581024398934e-02  2.5424850001002398e-02  2.5776528698064329e-02  2.6055513023237782e-02  2.6259478876482851e-02  2.6387727422818329e-02  2.6439158345055482e-02  2.6412464769341851e-02  2.6307180550391177e-02  2.6122904952802176e-02  2.5858394223882007e-02  2.5513827217047803e-02  2.5091480683511348e-02  2.4589431128701319e-02  2.4004732336397140e-02  2.3352312220744301e-02  2.2614733516247102e-02  2.1811572437289907e-02  2.0925556953539454e-02  1.9976067680410325e-02  1.8954492037511619e-02  1.7854834259057911e-02  1.6700539630560968e-02  1.5469589185781773e-02  1.4182252072676116e-02  1.2831854984578442e-02  1.1419466603492648e-02  9.9458636908256268e-03  8.4183321367736052e-03  6.8389949445207283e-03  5.1997357585855586e-03  3.5258523688500550e-03  1.7923530149582493e-03  0.0000000000000000e+00  0.0000000000000000e+00  0.0000000000000000e+00  0.0000000000000000e+00  0.0000000000000000e+00  0.0000000000000000e+00  0.0000000000000000e+00  0.0000000000000000e+00  0.0000000000000000e+00  2.0421181220823060e-03  3.9341536411519034e-03  5.8039499051824924e-03  7.6257338899902482e-03  9.4030224314775521e-03  1.1136802124470130e-02  1.2827754217726896e-02  1.4475414213766909e-02  1.6078506716859956e-02  1.7636899691424245e-02  1.9148449308998720e-02  2.0612913494763983e-02  2.2027409500821382e-02  2.3390864431487361e-02  2.4700467414955532e-02  2.5953713552755688e-02  2.7149861249872256e-02  2.8282006341533543e-02  2.9347088316265452e-02  3.0340418997644301e-02  3.1257326097719931e-02  3.2090442836067851e-02  3.2836098000787288e-02  3.3485959003078283e-02  3.4027941424993949e-02  3.4459549835394697e-02  3.4768889538224469e-02  3.4943171695626385e-02  3.4974038982478639e-02  3.4852418442197136e-02  3.4564840761906870e-02  3.4099140082392204e-02  3.3461793981186753e-02  3.2630184595515623e-02  3.1578905971347868e-02  3.0340583742472494e-02  2.8877694814589096e-02  2.7204356088040116e-02  2.5309650387298422e-02  2.3209022630658206e-02  2.0894791143453304e-02  1.8378473289834853e-02  1.5676853161681572e-02  1.2798066882329666e-02  9.7586428479018456e-03  6.5773829894389671e-03  3.2705809100174199e-03  -1.4143849137565793e-04  -3.6343656410452014e-03  -7.1871741248453061e-03  -1.0781479599446551e-02  -1.4398263511919526e-02  -1.8019949498966181e-02  -2.1633392095776808e-02  -2.5227162172636746e-02  -2.8793264089701381e-02  -3.2329555333160613e-02  -3.5836993958408260e-02  -3.9322619873032899e-02  -4.2796545420981671e-02  -4.6276870619749305e-02  -4.9787106625144566e-02  -5.3356572505995452e-02  -5.7023652918008372e-02  -6.0834228722538991e-02  -6.4843116621391778e-02  -6.9111226057246511e-02  -7.3721394584768923e-02  -7.8746938066593206e-02  -8.4288322824721970e-02  -9.0444761476624738e-02  -9.7303353009388457e-02  -1.0492774238781763e-01  -1.1332098173021349e-01  -1.2232826006073043e-01  -1.3177791126032581e-01  -1.4124132735053227e-01  -1.5030789378049556e-01  -1.5854748996335688e-01  -1.6575083092814771e-01  -1.7134975736442140e-01  -1.7544597281424532e-01  -1.7793568566974791e-01  -1.7922901328988175e-01  -1.7920538059629096e-01  -1.7796982018268659e-01  -1.7585950720678983e-01  -1.7296469945017151e-01  -1.6934219525878519e-01  -1.6519286768499922e-01  -1.6055469667142994e-01  -1.5559895601042359e-01  -1.5035173839114338e-01  -1.4483549187988332e-01  -1.3916537991000968e-01  -1.3335449029156030e-01  -1.2741471452734249e-01  -1.2138254002841806e-01  -1.1529064629592162e-01  -1.0915199303049794e-01  -1.0297249461614831e-01  -9.6768981352102795e-02  -9.0544032087144080e-02  -8.4315499719537779e-02  -7.8080198108674920e-02  -7.1846576475443694e-02  -6.5618201468086862e-02  -5.9396756606593465e-02  -5.3186187863084614e-02  -4.6987733672611505e-02  -4.0802443623786815e-02  -3.4631956487159381e-02  -2.8477265124996275e-02  -2.2339027655144082e-02  -1.6217783354981034e-02  -1.0114427670604881e-02  -4.0288016840276534e-03  2.0386002634582303e-03  8.0874296643673946e-03  1.4117683895661669e-02  2.0129024432547191e-02  2.6121056788333780e-02  2.6117812100537777e-02  2.6109886027136708e-02  2.6097442731808362e-02  2.6082327507253766e-02  2.6067196648990258e-02  2.6054727263095948e-02  2.6046748295749003e-02  2.6043515233973490e-02  4.2863464175176016e-02  -6.3669193301204727e-02  -1.0152320857151669e+00  -5.7243449374215782e-01  -4.5899915339445474e-01  -3.8835735194803389e-01  -3.3867418349271561e-01  -3.0010582716042267e-01  -2.6877613858935795e-01  -2.4816138033221788e-01  -2.2876531999978891e-01  -2.1217939517505049e-01  -1.9649212033641161e-01  -1.8153743168512793e-01  -1.6700594831409749e-01  8.0700219570284767e-02  9.3548458691425557e-02  8.1201451588593515e-02  5.8493819648758820e-02  3.7619225346271865e-02  2.2102510189394999e-02  -6.0872575627377701e-01  -8.6401997453618665e-02  1.2978338500451084e-02  8.8106296617107040e-03  8.3703889313053448e-03  -1.7881338388803163e-02  1.0472007464029395e-02  -1.5265284938289519e-01  1.3571078053694998e-02  -1.3786394002801994e-01  1.7368272872662936e-02  -6.6802970505398934e-02  -5.1513432767038278e-02  2.1004553715020014e-02  -3.7648365213134714e-02  -1.2307956877554749e-01  -1.9942852165214124e-02  2.3709008193239834e-02  -1.0756258166061533e-01  1.4357061738395283e-02  2.5661748210723034e-02  -2.0873227414995007e-03  -1.0839053184199601e-01  -9.1740854193565063e-02  2.6448327963213777e-02  1.6773312157061755e-02  -7.3964040458736113e-02  2.3903204845453309e-02  2.5987492078860707e-02  2.9454721001764852e-02  -5.6516834484373647e-02  -1.3474837703357823e-01  2.4332203409170996e-02  3.2873124295005399e-02  -1.6094260025162199e-01  3.4550603075629162e-02  2.1370776103917924e-02  -1.7600681975871910e-01  -3.6218131470784259e-02  -2.2163515695014700e-02  7.9382145675418719e-03  1.8392638491489303e-02  1.4667027855071051e-02  3.4687615378880536e-02  -1.7830053138235519e-01  3.2969308220657578e-02  -6.9351525644501533e-01  -1.6739666473378903e-01  3.0667513069487139e-02  -4.6863992534754758e-03  -1.5293246171098512e-01  1.0671590176489493e-02  2.6475212457333808e-02  -1.3611489887604666e-01  -1.1204679489230267e-01  2.2632026761287460e-02  -8.1190937022937656e-02  1.8326574422273138e-02  -6.2449048007768584e-02  -4.3787716216817867e-02  1.3600537322236006e-02  -1.2272389846619687e-02  1.6936669412744383e-03  2.0508718769936547e-02  -4.2039645177852176e-03  8.6116818701390853e-03  5.9126546097199159e-03  5.5140703971268091e-03  -3.5462934405561905e-02  2.8866327450706736e-03  -7.5779608624219730e-02  -1.7416591182019511e-01  -1.2483873086405725e-01  -1.0017966061429062e-01  5.7752965817950124e-03  -1.3054897491236872e-02  -3.0484956182088914e-02  -4.4465878990159358e-02  -5.8769466411807976e-02  -4.6195828660057607e-02  3.4083020133132316e-02  -6.5497106164716837e-02  -3.1590702441947123e-02  2.8709074048421421e-02  2.3000359945003202e-02  -8.3414698529088033e-02  2.5259041568080804e-02  2.6381940196653488e-02  -9.9277353711819075e-02  2.6204486629794532e-02  2.4819333223820732e-02  2.2295969328877209e-02  1.9297837917988125e-02  1.6899949266564459e-02  -1.1540529485955675e-01  1.5443050629112234e-02  1.1949871607902486e-02  -1.3059940826229702e-01  9.1958646924888126e-03  8.1871180240772543e-03  1.0293762501717520e-02  1.3931396733487564e-03  -1.4575176244205604e-01  -1.5928616600800824e-01  2.0822062587671223e-02  -1.7386288200541755e-01  -1.8893862570997058e-01  -2.0421175401495192e-01  -2.2062928407116170e-01  -2.3825288775762829e-01  -2.5763479031666336e-01  6.4119777931483657e-02  -2.8654419520710533e-01  -3.2159429132072909e-01  -3.6651255698253382e-01  9.0919753800513245e-02  -4.2779785259467579e-01  7.0540367769577145e-02  8.9317529836504164e-02  4.8388000498469343e-02  2.9152704836611028e-02  -5.1924859872830442e-01  -1.4735419222703394e+00  1.7820659897605283e-03  2.0374353368529389e-02  4.7857478181564063e-03  -7.4301201385502339e-04  2.1059897909865177e-02  1.4071553006776813e-03  1.7025707189720400e-02  3.5133551871126918e-04  9.4969665917838102e-04  3.3981581114920743e-03  4.1470158481469413e-04  3.0457887966155342e-03  -6.7424312170236679e-05  3.5012628283430281e-03  3.7430958399573461e-04  4.5358717365051801e-03  1.4534025823459448e-03  5.5697843611251701e-03  1.5872543893651401e-03  5.7356680347994187e-03  -9.2390710268367413e-04  3.3602840087465207e-03  -6.6760129382300356e-03  -2.1997586701429307e-03  -1.5649503614059004e-02  -1.0888864875373553e-02  -2.6699208715072798e-02  -2.0807847321834980e-02  -3.4042185327042937e-02  -3.0978105255792436e-03  -1.5637824335788312e-02  -4.4848116237325361e-02  -5.4453667251723896e-02  6.7255197736428864e-04  -1.1260327214402097e-02  5.9917578845762234e-03  -8.5111885222574884e-03  1.0169628045741015e-02  -7.5605550526988245e-03  1.3067671638585505e-02  -4.8195819803580377e-03  1.5203153872054734e-02  -7.1121313931492352e-03  1.4466624330113739e-02  -5.3147802950538094e-03  1.4161323991527121e-02  -6.5760174130727288e-03  1.2546575210332664e-02  -8.0495606909879846e-03  1.0248288740383867e-02  -1.0135795079620376e-02  7.4702989648363204e-03  -1.1680261272735543e-02  4.5284838729099976e-03  -1.3668266027095215e-02  1.5329567796046532e-03  -1.5070155217553834e-02  -2.2578208708438959e-03  -1.6415964836090365e-02  -2.7592093530807178e-03  -6.3833830783572451e-02  -7.7340362351634037e-02  -1.7841855716824659e-02  -6.3021896266286168e-03  -1.7960651543589140e-02  -7.5935213058042463e-03  -1.8633390654918130e-02  -8.9398082705292124e-03  -1.8503524720140371e-02  -9.7244077924380536e-03  -2.7496831409620059e-02  -1.7928189811743708e-02  -1.0104369876649300e-02  -1.8104679368888519e-02  -1.0306990134010496e-02  -1.5999369814533090e-02  -9.7171995074070254e-03  -8.2201553751415773e-02  -1.0101561214763492e-01  -3.9098916189793352e-03  -1.4740292124466236e-02  -9.0068328028053354e-03  -1.3085269771329096e-02  -8.0068140979955901e-03  -1.1311819356663847e-02  -6.7727044345720789e-03  -7.2788615528346604e-02  -9.3456395017053866e-03  -5.3064084817228633e-03  -2.4594327970484997e-02  -7.2548830134031971e-03  -3.6764619909873592e-03  -5.0580087895828497e-03  -1.8714836848420611e-03  -2.7445310573039230e-03  1.2243241247271661e-05  1.0875946976906558e-02  -2.4205608920564187e-02  -4.1123198366292647e-04  2.0184611984922526e-03  -9.8850193668988395e-02  -1.1765713898798709e-01  -8.4452663863835764e-02  -2.6296173136430460e-02  1.9669307160621371e-03  4.1215073542274225e-03  4.3510496605245466e-03  6.2480008944242778e-03  6.7378545749001940e-03  8.3117088544841251e-03  -3.1778398593079768e-03  4.4693771151907051e-03  -2.1443477047360729e-03  -8.0746851815884882e-04  9.0888423862484895e-03  1.0382489824684571e-02  9.6414294246282076e-03  1.1407293436793212e-02  1.2418411813682490e-02  1.3150951205197887e-02  1.4405867263991979e-02  1.4910883384038988e-02  1.6338998564841920e-02  1.6661416154344924e-02  1.8194714634960529e-02  1.8330605900588975e-02  1.9959595933427780e-02  1.9924379138233899e-02  2.1647230750933284e-02  2.1442334202053541e-02  2.3211940417379263e-02  2.2818516883769426e-02  2.4650610102744167e-02  2.4141269199696374e-02  2.5990969086114885e-02  2.5354543745217509e-02  2.7239407586840337e-02  2.6471061917237582e-02  4.8077675159418432e-03  -2.8222536491513069e-02  2.8338399844936839e-02  2.7469940564065199e-02  2.9268004959596951e-02  2.8351533171893983e-02  2.8541666511296037e-02  2.5068884431581704e-02  3.0094516919480761e-02  2.9115620932215029e-02  3.3782104547438241e-02  -2.6165524493364675e-02  -1.1054928613149757e-01  -1.3002287975276125e-01  -1.4658225211648065e-01  -1.5579332821783526e-01  -1.8104072318836803e-01  -1.8482014287878751e-01  -2.2512186923827959e-01  -2.1751289219818606e-01  -2.6036658190062645e-01  -2.4709156631085979e-01  -2.9773594721319796e-01  -2.7342988562829607e-01  -3.2204028533837403e-01  -2.9278714436718933e-01  -3.3783007809126864e-01  -3.0604601281921073e-01  -3.4466861803216742e-01  -3.1261478714433721e-01  -3.4493967146362853e-01  -3.1392044298114363e-01  -3.4043622846194205e-01  -3.1162552661959281e-01  -3.3335292312772757e-01  -3.0717330175617258e-01  -3.2481195068536522e-01  -3.0145990194984174e-01  -3.1446580145719116e-01  -2.9324368964489134e-01  -2.7869777670759016e-01  -2.7429143144756873e-01  -2.8668207162574744e-01  -2.6954854253015753e-01  -2.8117007374011627e-01  -2.6482154960569071e-01  -2.7374775902377485e-01  -2.5931852665052596e-01  -2.5884834405415430e-01  -2.5732134603964674e-01  -2.8511920241592797e-01  -2.6680006240316362e-01  -2.5375974211306795e-01  -2.4475540354894343e-01  -2.4079849767921255e-01  -2.4821615749517958e-01  -2.3692307391569636e-01  -2.4260103877682046e-01  -2.3253686911461396e-01  -2.3701047705394926e-01  -2.2763580004482509e-01  -2.2851273438688049e-01  -2.1079044390241244e-01  -3.5650195727049766e-01  -2.3154039159322090e-01  -2.2289662834368570e-01  -2.1836944749463336e-01  -2.1427789861616484e-01  -2.1820271411468781e-01  -2.1041605110493253e-01  -2.1337654951217383e-01  -2.0627891580241872e-01  -3.8563514663942999e-01  -2.0607480918965432e-01  -2.0857968409416888e-01  -2.0216613582788143e-01  -3.7262995417079686e-01  -2.0394195741041271e-01  -1.9782279718622373e-01  -1.9599777530336276e-01  -1.9171279704188365e-01  -1.9341366297728688e-01  -1.8763021440156205e-01  -1.8553965562723426e-01  -1.8188336777984604e-01  -1.8352157179573619e-01  -1.7811154724132167e-01  -1.7933045514687188e-01  -1.7414473126256094e-01  -1.7281029944771370e-01  -1.6912604377627247e-01  -1.7005883678276057e-01  -1.6530225942611643e-01  -1.6593431132504971e-01  -1.6136881615586590e-01  -1.5815741458117444e-01  -2.9781140505892795e-01  -3.4793093518389395e-01  -1.6183100388966332e-01  -1.5739414778104166e-01  -1.5685351808343195e-01  -1.5289091556612064e-01  -1.5319622651286849e-01  -1.4886887979334076e-01  -1.5232974217681597e-01  3.0832112768178883e-02  2.9774833871613230e-02  3.1416161475173766e-02  3.0311602724522258e-02  3.1866339117875224e-02  3.0729061002915368e-02  -2.5340211119827877e-01  -1.9956242964108341e-02  -2.5027069820532616e-03  -1.4892419297891177e-01  -1.4479080428804972e-01  -2.7977864752811366e-01  1.8142115557410965e-02  2.4530228521652601e-02  1.0628765669736667e-02  3.2191682308941379e-02  3.1029240418573630e-02  2.9444369292280680e-02  2.9742261057359540e-02  3.1217059374962660e-02  2.9926049114252135e-02  3.1283475530014940e-02  3.0001006643699247e-02  3.1253042242808393e-02  2.9991583346342096e-02  3.1114940086187860e-02  2.9875919698324510e-02  3.0885640393863104e-02  2.9674816679670816e-02  3.0574885215387964e-02  2.9370724934401963e-02  3.0162960330233836e-02  2.8978265606926103e-02  2.9656043143415356e-02  2.8490605701770467e-02  2.9051094646485150e-02  2.7917401840933068e-02  2.8374664061364824e-02  2.7263161899670329e-02  2.7627628415284725e-02  2.6524177611730041e-02  2.6796722057700707e-02  2.5713865035012398e-02  2.5854941851753136e-02  2.4815649786989257e-02  2.4920460575475652e-02  2.3859811830243410e-02  2.7907035367022798e-02  -1.6786026781025420e-01  -2.2112204834279037e-01  -1.4455457245753142e-01  -1.4054487494858911e-01  -1.4071207851281423e-01  -1.3641681169730679e-01  -1.3660823173451614e-01  -1.3230076312714403e-01  -1.3209106982837104e-01  -1.2802653748327208e-01  -1.2757658217811632e-01  -1.2360980783500886e-01  -1.2396862719167301e-01  -1.1961299755070766e-01  -1.1929801660350837e-01  -1.1524534645642238e-01  -1.1485055448621199e-01  -1.1081302875611