<?xml version="1.0"?>
<VTKFile type="UnstructuredGrid"  version="0.1"  >
<UnstructuredGrid>
<Piece  NumberOfPoints="2886" NumberOfCells="5412">
<Points>
<DataArray  type="Float64"  NumberOfComponents="3"  format="ascii">0 0.1 0  0.98 0.1 0  1 0.1 0  1 0 0  1.5 0 0  3 0 0  3 0.3 0  0 0.3 0  0.01975375321854102 0.1 0  0.03918897458218897 0.1 0  0.05831079002627837 0.1 0  0.07712425666319796 0.1 0  0.0956343475259058 0.1 0  0.1138459546796227 0.1 0  0.1317638870668193 0.1 0  0.1493928840275937 0.1 0  0.1667376092280033 0.1 0  0.1838026357802664 0.1 0  0.2005924801287244 0.1 0  0.2171115811543574 0.1 0  0.2333643037107681 0.1 0  0.2493549444060462 0.1 0  0.2650877293306821 0.1 0  0.2805668058011438 0.1 0  0.2957962848620976 0.1 0  0.3107801766802674 0.1 0  0.3255224447361181 0.1 0  0.3400269848175519 0.1 0  0.3542976327080778 0.1 0  0.3683381609158136 0.1 0  0.3821522744564845 0.1 0  0.3957436316838916 0.1 0  0.4091158196437086 0.1 0  0.4222723742184605 0.1 0  0.4352167733293057 0.1 0  0.4479524348643424 0.1 0  0.4604827295467524 0.1 0  0.4728109659990664 0.1 0  0.4849404035409129 0.1 0  0.4968742471455402 0.1 0  0.508615651843175 0.1 0  0.520167721130924 0.1 0  0.5315335063628542 0.1 0  0.5427160117228604 0.1 0  0.5537181940261912 0.1 0  0.564542961924507 0.1 0  0.575193173270606 0.1 0  0.5856716438765114 0.1 0  0.5959811458006617 0.1 0  0.6061243988680743 0.1 0  0.6161040893285659 0.1 0  0.6259228503970299 0.1 0  0.6355832809287655 0.1 0  0.6450879281079505 0.1 0  0.6544393102991295 0.1 0  0.663639896558931 0.1 0  0.6726921201956305 0.1 0  0.6815983691630338 0.1 0  0.6903610031396646 0.1 0  0.6989823343332418 0.1 0  0.7074646404270378 0.1 0  0.7158101645005117 0.1 0  0.7240211149852543 0.1 0  0.7320996585612525 0.1 0  0.7400479319727645 0.1 0  0.7478680336617921 0.1 0  0.755562036504958 0.1 0  0.7631319665092091 0.1 0  0.7705798279317605 0.1 0  0.777907588066146 0.1 0  0.7851171851013118 0.1 0  0.7922105226004981 0.1 0  0.7991894774550319 0.1 0  0.8060558928136696 0.1 0  0.812811583201334 0.1 0  0.8194583352091183 0.1 0  0.8259979035038147 0.1 0  0.8324320194413813 0.1 0  0.8387623808293405 0.1 0  0.8449906627004957 0.1 0  0.8511185094880469 0.1 0  0.8571475426008311 0.1 0  0.8630793533568246 0.1 0  0.8689155114558531 0.1 0  0.8746575581239063 0.1 0  0.8803070109173519 0.1 0  0.885865363938836 0.1 0  0.8913340851680313 0.1 0  0.8967146206523592 0.1 0  0.9020083930695622 0.1 0  0.9072167995950768 0.1 0  0.9123412183131177 0.1 0  0.9173830029719022 0.1 0  0.9223434865647732 0.1 0  0.9272239785872722 0.1 0  0.9320257720706087 0.1 0  0.9367501330378739 0.1 0  0.9413983102716995 0.1 0  0.9459715351562933 0.1 0  0.9504710127113115 0.1 0  0.9548979346500661 0.1 0  0.9592534708344373 0.1 0  0.9635387708980176 0.1 0  0.9677549682252325 0.1 0  0.971903177251235 0.1 0  0.9759844952956497 0.1 0  0.9840000000000086 0.1 0  0.987999999999974 0.1 0  0.9919999999999393 0.1 0  0.9959999999999913 0.1 0  1 0.09591793123533533 0  1 0.09133596463859224 0  1 0.08619288104391448 0  1 0.08041996484521211 0  1 0.07394008421771697 0  1 0.06666666567302955 0  1 0.05850252932209174 0  1 0.04933859630113544 0  1 0.03905242821848202 0  1 0.02750659386753798 0  1 0.01454683679239736 0  1.015625 0 0  1.03125 0 0  1.046875 0 0  1.0625 0 0  1.078125 0 0  1.09375 0 0  1.109375 0 0  1.125 0 0  1.140625 0 0  1.15625 0 0  1.171875 0 0  1.1875 0 0  1.203125 0 0  1.21875 0 0  1.234375 0 0  1.25 0 0  1.265625 0 0  1.28125 0 0  1.296875 0 0  1.3125 0 0  1.328125 0 0  1.34375 0 0  1.359375 0 0  1.375 0 0  1.390625 0 0  1.40625 0 0  1.421875 0 0  1.4375 0 0  1.453125 0 0  1.46875 0 0  1.484375 0 0  1.515920751924515 0 0  1.531989369316721 0 0  1.54820720925872 0 0  1.564575665560501 0 0  1.581096138674279 0 0  1.597770029901263 0 0  1.614598783332311 0 0  1.631583831055205 0 0  1.64872661129721 0 0  1.666028606716533 0 0  1.683491276608443 0 0  1.701116134125304 0 0  1.718904673324128 0 0  1.736858414799339 0 0  1.754978895814663 0 0  1.773267661782904 0 0  1.791726281103402 0 0  1.810356325314689 0 0  1.8291593848892 0 0  1.848137076690385 0 0  1.867291007717254 0 0  1.886622833871288 0 0  1.90613418642363 0 0  1.925826753299799 0 0  1.945702199101513 0 0  1.96576223584749 0 0  1.986008569283268 0 0  2.006442931928877 0 0  2.02706707547783 0 0  2.047882750887917 0 0  2.06889175187935 0 0  2.090095860038271 0 0  2.111496891648636 0 0  2.133096679109554 0 0  2.154897066851056 0 0  2.176899916687499 0 0  2.199107102752146 0 0  2.22152053937028 0 0  2.244142122958061 0 0  2.266973806444078 0 0  2.290017523268154 0 0  2.313275249499252 0 0  2.336748971745516 0 0  2.360440702338606 0 0  2.384352453384031 0 0  2.408486280477412 0 0  2.432844240041185 0 0  2.457428414757088 0 0  2.482240901796653 0 0  2.507283830121838 0 0  2.532559332080812 0 0  2.558069568787417 0 0  2.583816724966441 0 0  2.60980299606584 0 0  2.636030600971886 0 0  2.662501790984011 0 0  2.689218818279327 0 0  2.716183964547616 0 0  2.743399548861297 0 0  2.77086788244719 0 0  2.798591312896326 0 0  2.826572223178268 0 0  2.854812990138617 0 0  2.883316031690714 0 0  2.912083780657189 0 0  2.941118704633482 0 0  2.970423276998917 0 0  3 0.02999999999994495 0  3 0.05999999999987042 0  3 0.089999999999783 0  3 0.119999999999701 0  3 0.149999999999619 0  3 0.179999999999692 0  3 0.2099999999997737 0  3 0.2399999999998511 0  3 0.2699999999999185 0  2.970138294777171 0.3 0  2.940375666438236 0.3 0  2.910711782853056 0.3 0  2.881146331305122 0.3 0  2.851678975030285 0.3 0  2.822309388626621 0.3 0  2.793037250095074 0.3 0  2.76386223529133 0.3 0  2.734784017903872 0.3 0  2.705802289276642 0.3 0  2.676916713794697 0.3 0  2.648126987654635 0.3 0  2.619432780406184 0.3 0  2.590833779385199 0.3 0  2.562329669847737 0.3 0  2.533920134950189 0.3 0  2.505604855727852 0.3 0  2.477383539822502 0.3 0  2.449255847639465 0.3 0  2.421221492569094 0.3 0  2.393280152486815 0.3 0  2.36543151914496 0.3 0  2.337675285481809 0.3 0  2.310011142385583 0.3 0  2.282438797441587 0.3 0  2.254957931061538 0.3 0  2.227568248063605 0.3 0  2.200269436651085 0.3 0  2.173061204949961 0.3 0  2.145943251515011 0.3 0  2.118915272469994 0.3 0  2.091976978084957 0.3 0  2.065128060700849 0.3 0  2.038368218849433 0.3 0  2.01169717777258 0.3 0  1.985114624111908 0.3 0  1.958620267850966 0.3 0  1.93221382054972 0.3 0  1.905894991850698 0.3 0  1.879663489459713 0.3 0  1.853519019126419 0.3 0  1.827461291053897 0.3 0  1.801490031354372 0.3 0  1.775604937580312 0.3 0  1.74980572560258 0.3 0  1.724092118631866 0.3 0  1.698463829173586 0.3 0  1.672920575782554 0.3 0  1.647462076974085 0.3 0  1.622088043536933 0.3 0  1.5967981978949 0.3 0  1.571592267767068 0.3 0  1.546469970305736 0.3 0  1.521431023814044 0.3 0  1.496475156230927 0.3 0  1.471602093687753 0.3 0  1.446811560490646 0.3 0  1.422103279101731 0.3 0  1.397476971708191 0.3 0  1.37293238939876 0.3 0  1.348469231419202 0.3 0  1.324087248732772 0.3 0  1.299786165921677 0.3 0  1.275565710847046 0.3 0  1.251425617644257 0.3 0  1.227365618676339 0.3 0  1.203385446174014 0.3 0  1.179484853067473 0.3 0  1.155663548773374 0.3 0  1.131921292279077 0.3 0  1.108257802159295 0.3 0  1.084672829009693 0.3 0  1.061166115303374 0.3 0  1.037737392995421 0.3 0  1.01438640299116 0.3 0  0.991112899770314 0.3 0  0.9679166155523955 0.3 0  0.944797284182564 0.3 0  0.921754678526042 0.3 0  0.8987885143602501 0.3 0  0.8758985548820624 0.3 0  0.8530845484099929 0.3 0  0.8303462351786988 0.3 0  0.8076833651172373 0.3 0  0.7850956864865304 0.3 0  0.7625829601354557 0.3 0  0.7401449314598274 0.3 0  0.717781337993959 0.3 0  0.6954919649675473 0.3 0  0.6732765357561226 0.3 0  0.6511348120768439 0.3 0  0.6290665642016573 0.3 0  0.6070715355430467 0.3 0  0.5851494825775325 0.3 0  0.5633001690203812 0.3 0  0.5415233562273221 0.3 0  0.5198187909431873 0.3 0  0.4981862401387795 0.3 0  0.4766254686134248 0.3 0  0.4551362360485234 0.3 0  0.4337182975262159 0.3 0  0.4123714223228037 0.3 0  0.3910953802377493 0.3 0  0.3698899313205595 0.3 0  0.3487548463710963 0.3 0  0.3276898864081783 0.3 0  0.3066948129116018 0.3 0  0.2857694003037476 0.3 0  0.2649134227095047 0.3 0  0.2441266417321288 0.3 0  0.2234088223399122 0.3 0  0.2027597568977288 0.3 0  0.1821792020676698 0.3 0  0.1616669305402443 0.3 0  0.1412227158799362 0.3 0  0.12084633013886 0.3 0  0.1005375673448281 0.3 0  0.08029618164595353 0.3 0  0.06012194778526769 0.3 0  0.04001466495039718 0.3 0  0.01997408913631205 0.3 0  0 0.2800000000000553 0  0 0.2600000000001105 0  0 0.2400000000001658 0  0 0.2200000000002211 0  0 0.2000000000002764 0  0 0.1800000000002244 0  0 0.1600000000001691 0  0 0.140000000000115 0  0 0.1200000000000564 0  1.13346801534201 0.01255848438672509 0  1.003577645172735 0.09351054173913405 0  0.9777559943702486 0.1034978156913738 0  0.9524533750752109 0.1040889939962738 0  0.9296242411226409 0.1041520033606139 0  0.9046110503652111 0.104409422380137 0  0.8777709649694228 0.1053360318797398 0  0.8483859145648608 0.1061007868330701 0  0.8162363822948977 0.1052777104363292 0  0.7893110024210437 0.1060761643971561 0  0.7587949382612539 0.1067265405088633 0  0.7280603867732535 0.1069398153264939 0  0.6947001989413015 0.1075609887579097 0  0.6590363283767549 0.1076715322596598 0  0.6210028614493155 0.1072970410408442 0  1.1953125 0.01353164693413185 0  1.258193991486058 0.01269648635163345 0  1.3201967268638 0.01407907077719561 0  1.383538555392096 0.01434101079053473 0  1.445312500000001 0.01303671693628424 0  1.508925448095738 0.01398525724792267 0  0.9939176689634008 0.1034638089837981 0  1.120967497222226 0.2796788492172345 0  1.572835902117391 0.01424132418857359 0  1.637573277451887 0.01212536916586023 0  1.709730776795181 0.01466855431023635 0  1.005631976950563 0.07074019818158772 0  1.784944696816299 0.01454708406461822 0  0.5805605730631225 0.1101465090472147 0  1.855621181165637 0.01550931272897607 0  0.5366111276616774 0.1096761308243709 0  1.935200147913231 0.01760344159641829 0  1.214922267975168 0.2799787705802257 0  1.31178773425331 0.2792
[...]
<PointData  Scalars="pressure"> 
<DataArray  type="Float64"  Name="pressure"  format="ascii">-2.6365186330287103e-04  -1.1205713221844034e+00  -6.6449767790097830e-04  3.4347887668157817e-04  8.9720311685787552e-03  0.0000000000000000e+00  0.0000000000000000e+00  -1.8287936825389368e-04  -6.1897358670509840e-03  -1.2021050495419239e-02  -1.7759459219499084e-02  -2.3406565156428583e-02  -2.8964101911251212e-02  -3.4433668535694337e-02  -3.9816617060732487e-02  -4.5114916709358306e-02  -5.0329927492671650e-02  -5.5463206995328938e-02  -6.0516676322146384e-02  -6.5491866551114247e-02  -7.0390143682911063e-02  -7.5213626858926227e-02  -7.9963924491372282e-02  -8.4641947649100852e-02  -8.9250757128644928e-02  -9.3791443064255159e-02  -9.8265790976561310e-02  -1.0267644756091826e-01  -1.0702472120576059e-01  -1.1131171530828757e-01  -1.1554123603860293e-01  -1.1971418971099465e-01  -1.2383404497497476e-01  -1.2790230899472857e-01  -1.3192002847850232e-01  -1.3589102690719806e-01  -1.3981823858473313e-01  -1.4370330860902988e-01  -1.4754898480379425e-01  -1.5135890029568322e-01  -1.5513459233020729e-01  -1.5888049873104029e-01  -1.6259882865314990e-01  -1.6629375946979469e-01  -1.6996844334055036e-01  -1.7362159352034126e-01  -1.7726545166779861e-01  -1.8089843977854539e-01  -1.8452475809303756e-01  -1.8815117651365432e-01  -1.9178121322860175e-01  -1.9541182193666795e-01  -1.9905959223635869e-01  -2.0272232773750590e-01  -2.0640582501401855e-01  -2.1011623155603221e-01  -2.1385831992137075e-01  -2.1763773863170552e-01  -2.2146202192691622e-01  -2.2533615374411534e-01  -2.2926557197094560e-01  -2.3325602739519194e-01  -2.3732163702416992e-01  -2.4146153437697368e-01  -2.4568698565400668e-01  -2.5000071103213434e-01  -2.5442528452215490e-01  -2.5896316912752060e-01  -2.6361185307232093e-01  -2.6839231561812948e-01  -2.7332408036925571e-01  -2.7839995755884128e-01  -2.8364866092267277e-01  -2.8908044611763439e-01  -2.9469711408847793e-01  -3.0052473821526393e-01  -3.0657909750441931e-01  -3.1287697224748534e-01  -3.1945286275069790e-01  -3.2631486552363465e-01  -3.3347593476114984e-01  -3.4095285648610679e-01  -3.4883070538105032e-01  -3.5710159318986090e-01  -3.6579637068796111e-01  -3.7497620465574905e-01  -3.8467367494936378e-01  -3.9494609998519231e-01  -4.0584962102924405e-01  -4.1749203429708759e-01  -4.2993712395085021e-01  -4.4325816515200178e-01  -4.5762400856402680e-01  -4.7317623203367748e-01  -4.9009479624372804e-01  -5.0862227527197312e-01  -5.2905639543407956e-01  -5.5178726623440189e-01  -5.7735463294332090e-01  -6.0650834282596022e-01  -6.4031292763906666e-01  -6.8025567691213540e-01  -7.2927548046220803e-01  -7.9171023102744276e-01  -8.7503977732692517e-01  -1.0187381275445673e+00  -2.3223403164231726e+00  -2.0243086701799866e+00  -1.3889806409742493e+00  -7.9625038784142321e-01  -1.6389323809480014e-01  -6.7548320910210194e-02  -4.9600236268476407e-02  -3.2422108948797969e-02  -2.1706954054999516e-02  -1.4260024776413993e-02  -8.8417051990345719e-03  -4.5030124444329026e-03  -1.1334049956997158e-03  9.6771819886332219e-04  1.1362987735049790e-03  -6.2887431863655613e-04  -3.6049345237294106e-04  1.9084101133234209e-03  6.1420009720127722e-03  1.2325685546529084e-02  2.0250037444562607e-02  2.9578258690740825e-02  3.9820936562241671e-02  5.0185367334613804e-02  5.9959647554824691e-02  6.8553433149293463e-02  7.5491777821017361e-02  8.0543710067382035e-02  8.3603886967131905e-02  8.4680038435964930e-02  8.3956522941813924e-02  8.1669126824563509e-02  7.8078477146496267e-02  7.3514524127870406e-02  6.8216633230854237e-02  6.2374476726043543e-02  5.6386940536151071e-02  5.0245695328618022e-02  4.4250596071520334e-02  3.8480417194670297e-02  3.3025746601529231e-02  2.7930034888360249e-02  2.3255475036388733e-02  1.9011909721554900e-02  1.5225780905104154e-02  1.1883197081734458e-02  6.4318959149514557e-03  4.2797743796684868e-03  2.5112612204153720e-03  1.0812340639949035e-03  -2.0635096582745140e-05  -7.7843949578994373e-04  -1.3154229510980433e-03  -1.5810988644727917e-03  -1.5966008068621620e-03  -1.4064201567499234e-03  -1.0490695205454660e-03  -5.2888074513251766e-04  1.3700219801782713e-04  9.1843385277428030e-04  1.8012214062661925e-03  2.7698670275802528e-03  3.8005473454833069e-03  4.8864018142741467e-03  6.0114731159908955e-03  7.1607182614296305e-03  8.3253951780059340e-03  9.4920450413433863e-03  1.0649182599140276e-02  1.1795148146723859e-02  1.2911851049349990e-02  1.4002299081269879e-02  1.5052277118367969e-02  1.6058045967829754e-02  1.7013755920267763e-02  1.7916754138202332e-02  1.8762620487812857e-02  1.9545537486574012e-02  2.0264192155273180e-02  2.0915646356948946e-02  2.1496433750541805e-02  2.2005454524630479e-02  2.2440073323011012e-02  2.2799951617141854e-02  2.3083086183641167e-02  2.3289360753658211e-02  2.3418599948341300e-02  2.3470139604264206e-02  2.3443583913834047e-02  2.3340228833280088e-02  2.3158039964539245e-02  2.2897983262294003e-02  2.2563912515606192e-02  2.2152916210184479e-02  2.1662061247095663e-02  2.1107547465975644e-02  2.0471021393901136e-02  1.9773138929000643e-02  1.8995569949186410e-02  1.8158986352961825e-02  1.7253426044832789e-02  1.6274441950050574e-02  1.5243199105689342e-02  1.4138907864063487e-02  1.2981439609481735e-02  1.1763530179358977e-02  1.0486233789498138e-02  9.1500298623316770e-03  7.7594080319386659e-03  6.3194332128014719e-03  4.8224886150913179e-03  3.2840116195649196e-03  1.6919547550316974e-03  0.0000000000000000e+00  0.0000000000000000e+00  0.0000000000000000e+00  0.0000000000000000e+00  0.0000000000000000e+00  0.0000000000000000e+00  0.0000000000000000e+00  0.0000000000000000e+00  0.0000000000000000e+00  1.8669279918308906e-03  3.6479002190382085e-03  5.3956163634371872e-03  7.1044049462852966e-03  8.7757837659675503e-03  1.0409509762689560e-02  1.2005071419565522e-02  1.3561883437954324e-02  1.5079258639264915e-02  1.6556192178354513e-02  1.7991015102885245e-02  1.9382824336381225e-02  2.0728922018958835e-02  2.2028279486350354e-02  2.3278537658591246e-02  2.4475357994452301e-02  2.5618242576823377e-02  2.6700848039745664e-02  2.7719676383650145e-02  2.8669147635715955e-02  2.9544046103203988e-02  3.0336304282262458e-02  3.1042089939464435e-02  3.1649883482485250e-02  3.2149179093253717e-02  3.2534591853621113e-02  3.2791605757850818e-02  3.2907904431248712e-02  3.2872737856540289e-02  3.2674386901693518e-02  3.2297707211479620e-02  3.1725238667104708e-02  3.0964880820645590e-02  2.9993497156771676e-02  2.8777369196910822e-02  2.7346885806971234e-02  2.5667776844587341e-02  2.3748050680264605e-02  2.1576019947198769e-02  1.9164677980179005e-02  1.6507527099116813e-02  1.3612438086887731e-02  1.0498171918948517e-02  7.1724751081380005e-03  3.6533739007840321e-03  -3.8600859550771471e-05  -3.8852759695265542e-03  -7.8622113767948792e-03  -1.1944808033027651e-02  -1.6103667200095120e-02  -2.0318395052752684e-02  -2.4565386372208158e-02  -2.8821741170021020e-02  -3.3070606029377357e-02  -3.7295357822035351e-02  -4.1482784680234627e-02  -4.5627095312823419e-02  -4.9728687008082667e-02  -5.3784526137607779e-02  -5.7804396627529821e-02  -6.1804915992618205e-02  -6.5805045367332213e-02  -6.9833308547069206e-02  -7.3924832430752430e-02  -7.8125341089915312e-02  -8.2488099765243003e-02  -8.7074689906337974e-02  -9.1968427735591177e-02  -9.7246334414711311e-02  -1.0301278592624281e-01  -1.0937685523101542e-01  -1.1643662144383134e-01  -1.2427537807656164e-01  -1.3291848448278160e-01  -1.4222659643058402e-01  -1.5205274956163431e-01  -1.6196695252423252e-01  -1.7155163739120427e-01  -1.8035092382707865e-01  -1.8813013905048287e-01  -1.9428736702604077e-01  -1.9890551799315434e-01  -2.0185881228428396e-01  -2.0356848301560920e-01  -2.0390040856478805e-01  -2.0295989445067639e-01  -2.0109952275845644e-01  -1.9841146431824414e-01  -1.9495529801005093e-01  -1.9094231157272584e-01  -1.8641204341743431e-01  -1.8154579783349842e-01  -1.7637055355753095e-01  -1.7091017106933373e-01  -1.6528645987656240e-01  -1.5951299768874352e-01  -1.5360249515807406e-01  -1.4759343998876401e-01  -1.4152046232197329e-01  -1.3539706136199856e-01  -1.2922959075312518e-01  -1.2303576078760306e-01  -1.1681835045152973e-01  -1.1059609073551481e-01  -1.0436569319494794e-01  -9.8136009834480564e-02  -9.1910824723324139e-02  -8.5691893616618928e-02  -7.9483376957340229e-02  -7.3286564897913034e-02  -6.7102572263974064e-02  -6.0933119756214425e-02  -5.4779249205474528e-02  -4.8641656051780523e-02  -4.2520907297838272e-02  -3.6417942305549518e-02  -3.0332597762612240e-02  -2.4265396074918507e-02  -1.8216702648516190e-02  -1.2186524233207667e-02  -6.1752163689320488e-03  -1.8319170308246858e-04  -1.8654996342860162e-04  -1.9474958019220407e-04  -2.0761954693995251e-04  -2.2325160106531308e-04  -2.3889981572143486e-04  -2.5179676652751381e-04  -2.6005112349060904e-04  -2.6339739936742039e-04  4.4353157665360472e-02  -6.5310555908803927e-02  -1.1427097633464456e+00  -6.2759238687489050e-01  -5.0196123172767337e-01  -4.2521685700611067e-01  -3.7196406761114997e-01  -3.3107296112079809e-01  -2.9817864089408397e-01  -2.7670984762753581e-01  -2.5664757530257731e-01  -2.3960203102381317e-01  -2.2357288771872189e-01  -2.0837060900712961e-01  -1.9366321133678713e-01  7.6486432458143072e-02  8.1513008886844943e-02  6.4485236067787374e-02  4.0788366733023732e-02  2.1153416605312454e-02  7.7865624407498293e-03  -6.7809675836853844e-01  -1.0525053432095398e-01  8.9299232699175453e-04  -1.2727160882463088e-03  1.1843171432310962e-04  -1.7653363151219310e-02  3.6956855498552865e-03  -1.7918847964669726e-01  7.8452284350231296e-03  -1.6431452016939516e-01  1.2514891468296581e-02  -8.4626374960714165e-02  -6.7770271522800296e-02  1.6812549426474279e-02  -5.1842538252535243e-02  -1.4947502398863996e-01  -3.1084869911412578e-02  1.9956658467074177e-02  -1.3392195058747400e-01  1.6390334276594382e-02  2.2278947180872862e-02  -1.0134917254387987e-02  -1.2789576875018571e-01  -1.1807793585877084e-01  2.3382386841272675e-02  1.1762225538098504e-02  -1.0028676844990508e-01  1.9960253963117645e-02  2.3241673918310734e-02  2.6329404813052425e-02  -8.2831812228457216e-02  -1.5521201497884063e-01  2.1924771325329183e-02  3.0281465994395469e-02  -1.8298497528399285e-01  3.2309849635797430e-02  1.9369809328648329e-02  -1.9966529857867885e-01  -6.2528403085470086e-02  -4.8472057817732186e-02  1.5421677901600959e-03  1.6734160314506225e-02  1.3397553450451427e-02  3.2664369310886315e-02  -2.0311913390949846e-01  3.1144124168287723e-02  -7.6495031640979194e-01  -1.9306215375810246e-01  2.8970595224790428e-02  -3.0993808280152649e-02  -1.7891219426828431e-01  9.7853161899496693e-03  2.4973970057907288e-02  -1.6225420954889030e-01  -1.3828420747243261e-01  2.1312583815298772e-02  -1.0747379958833711e-01  1.7223417991775104e-02  -8.8742895470685965e-02  -7.0087171794628159e-02  1.2751954715253904e-02  -3.8575750103898965e-02  1.5732023585181825e-03  -5.7966213866930795e-03  -3.3594149176234133e-03  8.0514637788796084e-03  5.4488297019897984e-03  -2.0789996673851795e-02  -3.6171800032716597e-02  4.3607256974967533e-03  -9.4174734256245396e-02  -1.9950386467837555e-01  -1.5103566887621997e-01  -1.2644061720928715e-01  -2.0531789188084733e-02  -2.2987805743962621e-02  -4.3472270434297355e-02  -5.9735274291805820e-02  -7.5871309292549788e-02  -7.2507992558826617e-02  3.2162625922574753e-02  -9.1815499875217380e-02  -5.7892240046790576e-02  2.7104738907560270e-02  2.0789226194428304e-02  -1.0974399229363774e-01  2.2687350677097273e-02  2.3471648660300173e-02  -1.2562363734604381e-01  2.2982885660575963e-02  2.1261937945470214e-02  1.8316804007071797e-02  1.4810570080792103e-02  3.6917552945616734e-03  -1.4178069966656112e-01  1.0182077257203248e-02  5.7299483531652127e-03  -1.5701994292359675e-01  1.7359121182901071e-03  -8.9594823702869835e-04  -6.9414596778032145e-04  1.2726652626629277e-03  -1.7224317896020308e-01  -1.8587239422760263e-01  -5.4842743685573573e-03  -2.0059639976318841e-01  -2.1588533411258828e-01  -2.3144990797903489e-01  -2.4827395553535062e-01  -2.6644435691294577e-01  -2.8655769413236354e-01  6.3341043232370636e-02  -3.1679686202401375e-01  -3.5380419382848072e-01  -4.0172696418583886e-01  8.2656307795160602e-02  -4.6792129726538700e-01  5.2944566951156631e-02  7.4329731767709128e-02  3.1076271762907160e-02  1.3697317628554669e-02  -5.6832727894899004e-01  -1.6597783150448022e+00  1.6711336972440503e-03  -5.9301395045119106e-03  4.4673696922203285e-03  3.9673705109865019e-04  -5.2469746368568942e-03  1.3000047787364577e-03  -9.2785152270348677e-03  1.6193522054150011e-03  2.2318270158427308e-03  4.8844622589441535e-03  1.7735104373099481e-03  4.6517304228981728e-03  1.4729221258366156e-03  5.3355334893762582e-03  2.1296738726773391e-03  6.5344625792067472e-03  3.2165184726065730e-03  7.4093818071022215e-03  2.8020414727363118e-03  6.8317786182721671e-03  -9.6953824908906051e-04  3.0309076795794949e-03  -8.5544954376295997e-03  -4.5762447948073173e-03  -1.9900989170435025e-02  -1.5800142256979233e-02  -3.3717895720638144e-02  -2.8471396676651141e-02  -4.0675557806490820e-02  -8.4241697869943382e-03  -2.4158242743375684e-02  -5.4149890518237667e-02  -6.3488264725480970e-02  -5.9037148538485682e-03  -2.0779905466829330e-02  -1.7036297746880189e-03  -1.9256402567590591e-02  1.1507781226812606e-03  -1.9609673680038409e-02  2.6715314526278935e-03  -1.7836405019092311e-02  3.4494784484110294e-03  -2.1431040656500543e-02  1.3319376806804816e-03  -2.0304527568182792e-02  -3.2137474071017889e-05  -2.2228432165746215e-02  -2.5073992010429345e-03  -2.4121263836294947e-02  -5.4156155406689995e-03  -2.6436617400911418e-02  -8.5619847719444163e-03  -2.8008694841633021e-02  -1.1651271246134118e-02  -2.9877263061693922e-02  -1.4600986476053866e-02  -3.1033866302437273e-02  -1.8188660772294311e-02  -3.2035108793836559e-02  -1.8384041892749659e-02  -7.5422700695496225e-02  -8.9081052723792908e-02  -3.3052600319925983e-02  -2.1494828541438669e-02  -3.2712293269734620e-02  -2.2343085561256512e-02  -3.2894149599323186e-02  -2.3182447513560030e-02  -3.2254772526705285e-02  -2.3438139631799235e-02  -3.8898346190545177e-02  -3.1174754305061052e-02  -2.3275478638546281e-02  -3.0773066536782925e-02  -2.2915176935320469e-02  -2.8188872337564397e-02  -2.1791923767581409e-02  -9.5972834889232958e-02  -1.1521171516117813e-01  -3.7165844346300865e-03  -2.6402744954634863e-02  -2.0537981545984938e-02  -2.4229956764741038e-02  -1.9004165602207010e-02  -2.1943994091636294e-02  -1.7245236591769492e-02  -8.2723480512726225e-02  -1.9471486949433119e-02  -1.5265684896347413e-02  -3.9078559875672998e-02  -1.6879475764250470e-02  -1.3134778721957308e-02  -1.4195200155370406e-02  -1.0845503882915093e-02  -1.1405244475591977e-02  -8.4918604925716349e-03  1.1631167719176947e-02  -4.0551383786720706e-02  -8.6089913196838227e-03  -6.0333385077031608e-03  -1.1457650334573290e-01  -1.3394182499301849e-01  -1.0002000060829300e-01  -4.2870259280346851e-02  -5.7802205994393011e-03  -3.4887965503566801e-03  -2.9587195475111253e-03  -9.4174847083905975e-04  -1.5372572700953987e-04  1.5149773655687788e-03  -1.5228582147107549e-02  -3.4724142078962515e-03  -1.2538955642073293e-02  -1.4586422776536975e-02  2.5944033857579455e-03  3.9578378159043255e-03  2.9021486801912122e-03  5.0182372970362767e-03  6.3440489554646871e-03  7.0889571879293647e-03  8.6582550073726304e-03  9.1608545347083292e-03  1.0900939821798006e-02  1.1209832106577264e-02  1.3046112525009897e-02  1.3151043105123102e-02  1.5079438429828219e-02  1.4996896106942850e-02  1.7020919986693823e-02  1.6750301850031964e-02  1.8814862614382158e-02  1.8332501187650504e-02  2.0466850662513060e-02  1.9856520389858235e-02  2.2004529550451436e-02  2.1251872821994307e-02  2.3442589915737604e-02  2.2539785640160830e-02  -1.0479170252729150e-02  -4.3960820852305724e-02  2.4711119728051761e-02  2.3692097239184837e-02  2.5790916646607358e-02  2.4721218562652521e-02  2.0987019115202524e-02  9.1161765317025467e-03  2.6758353805893805e-02  2.5617032845222040e-02  2.0134214886836945e-02  -4.0608438632634462e-02  -1.2780519628806969e-01  -1.4788884082855613e-01  -1.6407532975083863e-01  -1.7479100246424717e-01  -2.0063342658338373e-01  -2.0538564603248263e-01  -2.4749760147723385e-01  -2.4010495582307928e-01  -2.8539930209420489e-01  -2.7173216886487223e-01  -3.2558076180204742e-01  -3.0003008763310357e-01  -3.5198528281602615e-01  -3.2096712837814562e-01  -3.6924059659620595e-01  -3.3540466793613227e-01  -3.7686808674712186e-01  -3.4269276137345445e-01  -3.7741818249895787e-01  -3.4431910578456704e-01  -3.7281789577659064e-01  -3.4208680184890511e-01  -3.6543565172736386e-01  -3.3753539326110132e-01  -3.5648927936893776e-01  -3.3162964715055832e-01  -3.4562617749839697e-01  -3.2306439067283244e-01  -3.0748495760210137e-01  -3.0299541507616184e-01  -3.1626367795678978e-01  -2.9814764274128908e-01  -3.1058491561896157e-01  -2.9331651615639592e-01  -3.0288258258168316e-01  -2.8766320607319928e-01  -2.8503832134900037e-01  -2.8489624852608181e-01  -3.1373219921298928e-01  -2.9568527954943064e-01  -2.8195937749032801e-01  -2.7234614883388752e-01  -2.6834519998686190e-01  -2.7627754334193544e-01  -2.6443826997707859e-01  -2.7052568639921554e-01  -2.5999257445003748e-01  -2.6480228778312281e-01  -2.5500473028351178e-01  -2.5550538806157114e-01  -2.3159006403195137e-01  -3.8877571208522027e-01  -2.5920636975046774e-01  -2.5019455957590570e-01  -2.4534000707651599e-01  -2.4122101571195309e-01  -2.4543566453370033e-01  -2.3734561489780109e-01  -2.4054140175943306e-01  -2.3318058566315172e-01  -4.2085746740112423e-01  -2.3270914439633875e-01  -2.3567843781120690e-01  -2.2904128597400622e-01  -4.0734080176104465e-01  -2.3097890023557699e-01  -2.2466166919946801e-01  -2.2265839744342009e-01  -2.1836117434556998e-01  -2.2021958022032340e-01  -2.1427290291398746e-01  -2.1200644704427257e-01  -2.0837049062678714e-01  -2.1015638769537248e-01  -2.0461176634864459e-01  -2.0595382160863648e-01  -2.0065219581547494e-01  -1.9918796693134669e-01  -1.9552761141971331e-01  -1.9656827298144314e-01  -1.9171991080913087e-01  -1.9244009104049942e-01  -1.8779530993671531e-01  -1.7792390160167676e-01  -3.2821057235018003e-01  -3.8118823793606227e-01  -1.8833042003375738e-01  -1.8382537466656731e-01  -1.8320760027975683e-01  -1.7925927392833271e-01  -1.7962801857565097e-01  -1.7524778220610976e-01  -1.7862056440257726e-01  2.7635484125994581e-02  2.6403089144124370e-02  2.8342972074287546e-02  2.7056771054458435e-02  2.8907260840929015e-02  2.7583733789171172e-02  -2.8184995878846292e-01  -3.1844655057688111e-02  -9.9850919697365469e-04  -1.7535423717127105e-01  -1.7117520410337769e-01  -3.0937941546766273e-01  1.2933757075592064e-02  2.0343968213644145e-02  3.9282782577141160e-03  2.9338605114602356e-02  2.7986619809454199e-02  2.6150889995561671e-02  2.6548652224786525e-02  2.8271811928987933e-02  2.6827157487406415e-02  2.8429083089922286e-02  2.6993114747623444e-02  2.8487710235441270e-02  2.7073401772796823e-02  2.8434821422688075e-02  2.7046124206316684e-02  2.8290859264130729e-02  2.6935516383457814e-02  2.8067717405518479e-02  2.6719758406320258e-02  2.7740651306358211e-02  2.6416573031899301e-02  2.7315340448454389e-02  2.6017607655566443e-02  2.6790918781991038e-02  2.5533435978822908e-02  2.6203091989223638e-02  2.4973379285721031e-02  2.5544454374450225e-02  2.4325490230672785e-02  2.4802857415124297e-02  2.3614077521550928e-02  2.3940131590186729e-02  2.2808430317408313e-02  2.3120638905567266e-02  2.1959286088810429e-02  2.4279139911979282e-02  -1.9413318081092631e-01  -2.4859068329328626e-01  -1.7098063758341672e-01  -1.6693157444189918e-01  -1.6705436893710798e-01  -1.6276709457609409e-01  -1.6291343339627257e-01  -1.5861898811778258e-01  -1.5844674334672235e-01  -1.5435408230323991e-01  -1.5393500463211388e-01  -1.4994392377817603e-01  -1.5027245542589765e-01  -1.4592606905499778e-01  -1.4563610591187368e-01  -1.41565107115