<?xml version="1.0"?>
<VTKFile type="UnstructuredGrid"  version="0.1"  >
<UnstructuredGrid>
<Piece  NumberOfPoints="2886" NumberOfCells="5412">
<Points>
<DataArray  type="Float64"  NumberOfComponents="3"  format="ascii">0 0.1 0  0.98 0.1 0  1 0.1 0  1 0 0  1.5 0 0  3 0 0  3 0.3 0  0 0.3 0  0.01975375321854102 0.1 0  0.03918897458218897 0.1 0  0.05831079002627837 0.1 0  0.07712425666319796 0.1 0  0.0956343475259058 0.1 0  0.1138459546796227 0.1 0  0.1317638870668193 0.1 0  0.1493928840275937 0.1 0  0.1667376092280033 0.1 0  0.1838026357802664 0.1 0  0.2005924801287244 0.1 0  0.2171115811543574 0.1 0  0.2333643037107681 0.1 0  0.2493549444060462 0.1 0  0.2650877293306821 0.1 0  0.2805668058011438 0.1 0  0.2957962848620976 0.1 0  0.3107801766802674 0.1 0  0.3255224447361181 0.1 0  0.3400269848175519 0.1 0  0.3542976327080778 0.1 0  0.3683381609158136 0.1 0  0.3821522744564845 0.1 0  0.3957436316838916 0.1 0  0.4091158196437086 0.1 0  0.4222723742184605 0.1 0  0.4352167733293057 0.1 0  0.4479524348643424 0.1 0  0.4604827295467524 0.1 0  0.4728109659990664 0.1 0  0.4849404035409129 0.1 0  0.4968742471455402 0.1 0  0.508615651843175 0.1 0  0.520167721130924 0.1 0  0.5315335063628542 0.1 0  0.5427160117228604 0.1 0  0.5537181940261912 0.1 0  0.564542961924507 0.1 0  0.575193173270606 0.1 0  0.5856716438765114 0.1 0  0.5959811458006617 0.1 0  0.6061243988680743 0.1 0  0.6161040893285659 0.1 0  0.6259228503970299 0.1 0  0.6355832809287655 0.1 0  0.6450879281079505 0.1 0  0.6544393102991295 0.1 0  0.663639896558931 0.1 0  0.6726921201956305 0.1 0  0.6815983691630338 0.1 0  0.6903610031396646 0.1 0  0.6989823343332418 0.1 0  0.7074646404270378 0.1 0  0.7158101645005117 0.1 0  0.7240211149852543 0.1 0  0.7320996585612525 0.1 0  0.7400479319727645 0.1 0  0.7478680336617921 0.1 0  0.755562036504958 0.1 0  0.7631319665092091 0.1 0  0.7705798279317605 0.1 0  0.777907588066146 0.1 0  0.7851171851013118 0.1 0  0.7922105226004981 0.1 0  0.7991894774550319 0.1 0  0.8060558928136696 0.1 0  0.812811583201334 0.1 0  0.8194583352091183 0.1 0  0.8259979035038147 0.1 0  0.8324320194413813 0.1 0  0.8387623808293405 0.1 0  0.8449906627004957 0.1 0  0.8511185094880469 0.1 0  0.8571475426008311 0.1 0  0.8630793533568246 0.1 0  0.8689155114558531 0.1 0  0.8746575581239063 0.1 0  0.8803070109173519 0.1 0  0.885865363938836 0.1 0  0.8913340851680313 0.1 0  0.8967146206523592 0.1 0  0.9020083930695622 0.1 0  0.9072167995950768 0.1 0  0.9123412183131177 0.1 0  0.9173830029719022 0.1 0  0.9223434865647732 0.1 0  0.9272239785872722 0.1 0  0.9320257720706087 0.1 0  0.9367501330378739 0.1 0  0.9413983102716995 0.1 0  0.9459715351562933 0.1 0  0.9504710127113115 0.1 0  0.9548979346500661 0.1 0  0.9592534708344373 0.1 0  0.9635387708980176 0.1 0  0.9677549682252325 0.1 0  0.971903177251235 0.1 0  0.9759844952956497 0.1 0  0.9840000000000086 0.1 0  0.987999999999974 0.1 0  0.9919999999999393 0.1 0  0.9959999999999913 0.1 0  1 0.09591793123533533 0  1 0.09133596463859224 0  1 0.08619288104391448 0  1 0.08041996484521211 0  1 0.07394008421771697 0  1 0.06666666567302955 0  1 0.05850252932209174 0  1 0.04933859630113544 0  1 0.03905242821848202 0  1 0.02750659386753798 0  1 0.01454683679239736 0  1.015625 0 0  1.03125 0 0  1.046875 0 0  1.0625 0 0  1.078125 0 0  1.09375 0 0  1.109375 0 0  1.125 0 0  1.140625 0 0  1.15625 0 0  1.171875 0 0  1.1875 0 0  1.203125 0 0  1.21875 0 0  1.234375 0 0  1.25 0 0  1.265625 0 0  1.28125 0 0  1.296875 0 0  1.3125 0 0  1.328125 0 0  1.34375 0 0  1.359375 0 0  1.375 0 0  1.390625 0 0  1.40625 0 0  1.421875 0 0  1.4375 0 0  1.453125 0 0  1.46875 0 0  1.484375 0 0  1.515920751924515 0 0  1.531989369316721 0 0  1.54820720925872 0 0  1.564575665560501 0 0  1.581096138674279 0 0  1.597770029901263 0 0  1.614598783332311 0 0  1.631583831055205 0 0  1.64872661129721 0 0  1.666028606716533 0 0  1.683491276608443 0 0  1.701116134125304 0 0  1.718904673324128 0 0  1.736858414799339 0 0  1.754978895814663 0 0  1.773267661782904 0 0  1.791726281103402 0 0  1.810356325314689 0 0  1.8291593848892 0 0  1.848137076690385 0 0  1.867291007717254 0 0  1.886622833871288 0 0  1.90613418642363 0 0  1.925826753299799 0 0  1.945702199101513 0 0  1.96576223584749 0 0  1.986008569283268 0 0  2.006442931928877 0 0  2.02706707547783 0 0  2.047882750887917 0 0  2.06889175187935 0 0  2.090095860038271 0 0  2.111496891648636 0 0  2.133096679109554 0 0  2.154897066851056 0 0  2.176899916687499 0 0  2.199107102752146 0 0  2.22152053937028 0 0  2.244142122958061 0 0  2.266973806444078 0 0  2.290017523268154 0 0  2.313275249499252 0 0  2.336748971745516 0 0  2.360440702338606 0 0  2.384352453384031 0 0  2.408486280477412 0 0  2.432844240041185 0 0  2.457428414757088 0 0  2.482240901796653 0 0  2.507283830121838 0 0  2.532559332080812 0 0  2.558069568787417 0 0  2.583816724966441 0 0  2.60980299606584 0 0  2.636030600971886 0 0  2.662501790984011 0 0  2.689218818279327 0 0  2.716183964547616 0 0  2.743399548861297 0 0  2.77086788244719 0 0  2.798591312896326 0 0  2.826572223178268 0 0  2.854812990138617 0 0  2.883316031690714 0 0  2.912083780657189 0 0  2.941118704633482 0 0  2.970423276998917 0 0  3 0.02999999999994495 0  3 0.05999999999987042 0  3 0.089999999999783 0  3 0.119999999999701 0  3 0.149999999999619 0  3 0.179999999999692 0  3 0.2099999999997737 0  3 0.2399999999998511 0  3 0.2699999999999185 0  2.970138294777171 0.3 0  2.940375666438236 0.3 0  2.910711782853056 0.3 0  2.881146331305122 0.3 0  2.851678975030285 0.3 0  2.822309388626621 0.3 0  2.793037250095074 0.3 0  2.76386223529133 0.3 0  2.734784017903872 0.3 0  2.705802289276642 0.3 0  2.676916713794697 0.3 0  2.648126987654635 0.3 0  2.619432780406184 0.3 0  2.590833779385199 0.3 0  2.562329669847737 0.3 0  2.533920134950189 0.3 0  2.505604855727852 0.3 0  2.477383539822502 0.3 0  2.449255847639465 0.3 0  2.421221492569094 0.3 0  2.393280152486815 0.3 0  2.36543151914496 0.3 0  2.337675285481809 0.3 0  2.310011142385583 0.3 0  2.282438797441587 0.3 0  2.254957931061538 0.3 0  2.227568248063605 0.3 0  2.200269436651085 0.3 0  2.173061204949961 0.3 0  2.145943251515011 0.3 0  2.118915272469994 0.3 0  2.091976978084957 0.3 0  2.065128060700849 0.3 0  2.038368218849433 0.3 0  2.01169717777258 0.3 0  1.985114624111908 0.3 0  1.958620267850966 0.3 0  1.93221382054972 0.3 0  1.905894991850698 0.3 0  1.879663489459713 0.3 0  1.853519019126419 0.3 0  1.827461291053897 0.3 0  1.801490031354372 0.3 0  1.775604937580312 0.3 0  1.74980572560258 0.3 0  1.724092118631866 0.3 0  1.698463829173586 0.3 0  1.672920575782554 0.3 0  1.647462076974085 0.3 0  1.622088043536933 0.3 0  1.5967981978949 0.3 0  1.571592267767068 0.3 0  1.546469970305736 0.3 0  1.521431023814044 0.3 0  1.496475156230927 0.3 0  1.471602093687753 0.3 0  1.446811560490646 0.3 0  1.422103279101731 0.3 0  1.397476971708191 0.3 0  1.37293238939876 0.3 0  1.348469231419202 0.3 0  1.324087248732772 0.3 0  1.299786165921677 0.3 0  1.275565710847046 0.3 0  1.251425617644257 0.3 0  1.227365618676339 0.3 0  1.203385446174014 0.3 0  1.179484853067473 0.3 0  1.155663548773374 0.3 0  1.131921292279077 0.3 0  1.108257802159295 0.3 0  1.084672829009693 0.3 0  1.061166115303374 0.3 0  1.037737392995421 0.3 0  1.01438640299116 0.3 0  0.991112899770314 0.3 0  0.9679166155523955 0.3 0  0.944797284182564 0.3 0  0.921754678526042 0.3 0  0.8987885143602501 0.3 0  0.8758985548820624 0.3 0  0.8530845484099929 0.3 0  0.8303462351786988 0.3 0  0.8076833651172373 0.3 0  0.7850956864865304 0.3 0  0.7625829601354557 0.3 0  0.7401449314598274 0.3 0  0.717781337993959 0.3 0  0.6954919649675473 0.3 0  0.6732765357561226 0.3 0  0.6511348120768439 0.3 0  0.6290665642016573 0.3 0  0.6070715355430467 0.3 0  0.5851494825775325 0.3 0  0.5633001690203812 0.3 0  0.5415233562273221 0.3 0  0.5198187909431873 0.3 0  0.4981862401387795 0.3 0  0.4766254686134248 0.3 0  0.4551362360485234 0.3 0  0.4337182975262159 0.3 0  0.4123714223228037 0.3 0  0.3910953802377493 0.3 0  0.3698899313205595 0.3 0  0.3487548463710963 0.3 0  0.3276898864081783 0.3 0  0.3066948129116018 0.3 0  0.2857694003037476 0.3 0  0.2649134227095047 0.3 0  0.2441266417321288 0.3 0  0.2234088223399122 0.3 0  0.2027597568977288 0.3 0  0.1821792020676698 0.3 0  0.1616669305402443 0.3 0  0.1412227158799362 0.3 0  0.12084633013886 0.3 0  0.1005375673448281 0.3 0  0.08029618164595353 0.3 0  0.06012194778526769 0.3 0  0.04001466495039718 0.3 0  0.01997408913631205 0.3 0  0 0.2800000000000553 0  0 0.2600000000001105 0  0 0.2400000000001658 0  0 0.2200000000002211 0  0 0.2000000000002764 0  0 0.1800000000002244 0  0 0.1600000000001691 0  0 0.140000000000115 0  0 0.1200000000000564 0  1.13346801534201 0.01255848438672509 0  1.003577645172735 0.09351054173913405 0  0.9777559943702486 0.1034978156913738 0  0.9524533750752109 0.1040889939962738 0  0.9296242411226409 0.1041520033606139 0  0.9046110503652111 0.104409422380137 0  0.8777709649694228 0.1053360318797398 0  0.8483859145648608 0.1061007868330701 0  0.8162363822948977 0.1052777104363292 0  0.7893110024210437 0.1060761643971561 0  0.7587949382612539 0.1067265405088633 0  0.7280603867732535 0.1069398153264939 0  0.6947001989413015 0.1075609887579097 0  0.6590363283767549 0.1076715322596598 0  0.6210028614493155 0.1072970410408442 0  1.1953125 0.01353164693413185 0  1.258193991486058 0.01269648635163345 0  1.3201967268638 0.01407907077719561 0  1.383538555392096 0.01434101079053473 0  1.445312500000001 0.01303671693628424 0  1.508925448095738 0.01398525724792267 0  0.9939176689634008 0.1034638089837981 0  1.120967497222226 0.2796788492172345 0  1.572835902117391 0.01424132418857359 0  1.637573277451887 0.01212536916586023 0  1.709730776795181 0.01466855431023635 0  1.005631976950563 0.07074019818158772 0  1.784944696816299 0.01454708406461822 0  0.5805605730631225 0.1101465090472147 0  1.855621181165637 0.01550931272897607 0  0.5366111276616774 0.1096761308243709 0  1.935200147913231 0.01760344159641829 0  1.214922267975168 0.2799787705802257 0  1.31178773425331 0.2792
[...]
<PointData  Scalars="pressure"> 
<DataArray  type="Float64"  Name="pressure"  format="ascii">3.8864423260258979e-01  -1.5687171698314700e-01  3.1818386158183160e-01  3.2403103829552937e-01  3.1316597215612657e-01  0.0000000000000000e+00  0.0000000000000000e+00  3.8869248439554044e-01  3.8271812999972399e-01  3.7688710569730227e-01  3.7114942276416341e-01  3.6550350538948512e-01  3.5994771529858310e-01  3.5448049388098535e-01  3.4910045767937381e-01  3.4380583997293601e-01  3.3859526367141890e-01  3.3346724545676998e-01  3.2842005624045784e-01  3.2345224939111095e-01  3.1856247670776705e-01  3.1374891537173427e-01  3.0901007145801440e-01  3.0434493163885978e-01  2.9975107980148497e-01  2.9522738624701922e-01  2.9077227422814561e-01  2.8638362750735880e-01  2.8206016358748148e-01  2.7780082774882658e-01  2.7360271548743326e-01  2.6946488112041483e-01  2.6538470464408315e-01  2.6136076615159914e-01  2.5739215052913611e-01  2.5347592195619872e-01  2.4960987054554140e-01  2.4579258656941955e-01  2.4202195523060585e-01  2.3829530866921253e-01  2.3461130238599634e-01  2.3096680308566966e-01  2.2736009447840969e-01  2.2378816388670228e-01  2.2024863716556367e-01  2.1674229409539233e-01  2.1326084639946385e-01  2.0980501373323010e-01  2.0637211907431596e-01  2.0295745418620570e-01  1.9955857458760601e-01  1.9617749492305397e-01  1.9280329073559005e-01  1.8943735365713452e-01  1.8607596745765040e-01  1.8271515957360229e-01  1.7935197405510211e-01  1.7598288518540520e-01  1.7260323001273759e-01  1.6921010266228259e-01  1.6580026149864807e-01  1.6237039500667144e-01  1.5891206780163100e-01  1.5542618499419278e-01  1.5190636272521815e-01  1.4835153943337345e-01  1.4474785806517629e-01  1.4109608805438834e-01  1.3739739663770684e-01  1.3364023134479025e-01  1.2981427846416654e-01  1.2592493096598617e-01  1.2195612634117914e-01  1.1790492810541996e-01  1.1377033744520915e-01  1.0953957437932334e-01  1.0520553646287323e-01  1.0076120554797709e-01  9.6190671471294203e-02  9.1490273323784593e-02  8.6659909870256888e-02  8.1685346003396997e-02  7.6533371391679303e-02  7.1208981967118251e-02  6.5699472899594297e-02  5.9979790357753353e-02  5.4037223921916448e-02  4.7850353082748869e-02  4.1393867642589718e-02  3.4628938188890367e-02  2.7530478804897542e-02  2.0071778829551638e-02  1.2187154568761254e-02  3.8239542492475610e-03  -5.0828961301347840e-03  -1.4624887691644968e-02  -2.4909150731831614e-02  -3.6077156477420318e-02  -4.8322018430239096e-02  -6.1905901707750045e-02  -7.7196033787895607e-02  -9.4688945516936476e-02  -1.1540168948173622e-01  -1.4078974937424391e-01  -1.7034481957977721e-01  -2.3835720731655294e-01  -7.3317230212878992e-01  -7.0543977394447777e-01  -4.2645986455121243e-01  -1.7327564952620575e-01  2.4092037979700962e-01  2.8752236369814754e-01  2.9863329664830662e-01  3.0906373293006068e-01  3.1575770297814493e-01  3.2010904055008838e-01  3.2267366718949775e-01  3.2409624350238020e-01  3.2465948670967204e-01  3.2450154998883118e-01  3.2405233082148133e-01  3.2405863453705713e-01  3.2329327404654540e-01  3.2190793734162604e-01  3.1942769709070817e-01  3.1547986880226975e-01  3.1010590630996654e-01  3.0377134702602343e-01  2.9710595845756183e-01  2.9121598730496562e-01  2.8721568746088205e-01  2.8601765624800718e-01  2.8812828099160664e-01  2.9347610777362648e-01  3.0149756636111708e-01  3.1112417728433517e-01  3.2120471376677850e-01  3.3068445585705414e-01  3.3869383739418785e-01  3.4471415437527447e-01  3.4833906296632117e-01  3.4976287890983010e-01  3.4920770858275857e-01  3.4684516010860800e-01  3.4326837383094178e-01  3.3879076494070498e-01  3.3411044378371241e-01  3.2922899355812485e-01  3.2478023216931035e-01  3.2085502597326998e-01  3.1760517301448021e-01  3.1506356115308576e-01  3.1177729499690798e-01  3.1076312544568174e-01  3.0989387690888248e-01  3.0895977101130784e-01  3.0776504623115708e-01  3.0607050445502815e-01  3.0379015438464962e-01  3.0076413190679602e-01  2.9680074969495512e-01  2.9189314724762905e-01  2.8617181093135441e-01  2.7960982453038907e-01  2.7236059345120928e-01  2.6474142828877822e-01  2.5713466907096522e-01  2.4997635586439179e-01  2.4380881147551925e-01  2.3932100908932766e-01  2.3657344956017698e-01  2.3607852542004870e-01  2.3773509033033371e-01  2.4117679311369389e-01  2.4587713173075809e-01  2.5110714703861831e-01  2.5603193189583290e-01  2.5996144826158335e-01  2.6201141674278167e-01  2.6200067131790106e-01  2.5961632726309725e-01  2.5489352654827108e-01  2.4796168528822621e-01  2.3927993801526704e-01  2.2927285255456772e-01  2.1836356812719959e-01  2.0683925525777466e-01  1.9509183338485508e-01  1.8333665375391847e-01  1.7182280643782188e-01  1.6070150533922445e-01  1.5012808183727486e-01  1.4026510549600676e-01  1.3126967525027378e-01  1.2326070387822889e-01  1.1638216596589965e-01  1.1066142398910234e-01  1.0604649440511876e-01  1.0245084717145031e-01  9.9700179295740904e-02  9.7394304568497944e-02  9.5387235120295344e-02  9.3255386731047524e-02  9.0883700851996180e-02  8.7901761936967540e-02  8.4398891767521314e-02  8.0250457835134348e-02  7.5319745756427553e-02  7.0031309741550127e-02  6.4084667884142951e-02  5.7923579259596777e-02  5.1538202423651085e-02  4.5100494460203346e-02  3.8472603551994403e-02  3.1981208104830738e-02  2.5508467056628129e-02  1.9096630655197826e-02  1.2848527658220548e-02  6.4489819750058160e-03  0.0000000000000000e+00  0.0000000000000000e+00  0.0000000000000000e+00  0.0000000000000000e+00  0.0000000000000000e+00  0.0000000000000000e+00  0.0000000000000000e+00  0.0000000000000000e+00  0.0000000000000000e+00  7.5293710038370930e-03  1.4682270277191928e-02  2.1903136059092006e-02  2.8820645940184207e-02  3.5522746131686329e-02  4.2036348000500177e-02  4.8417149010225979e-02  5.4730968771034887e-02  6.1059952936288103e-02  6.7515716766276282e-02  7.4188411456290876e-02  8.1162121647640320e-02  8.8453904710300749e-02  9.6028534157956980e-02  1.0376397153421432e-01  1.1147111997376016e-01  1.1886015421069951e-01  1.2556774080096778e-01  1.3122923990107010e-01  1.3549808382829737e-01  1.3812205122771559e-01  1.3901329755518430e-01  1.3832977748775280e-01  1.3651581662180862e-01  1.3427037277710810e-01  1.3251156553724805e-01  1.3219727544457086e-01  1.3411822313039745e-01  1.3890303659327838e-01  1.4668981924111993e-01  1.5725879886161387e-01  1.7006906597560198e-01  1.8456002198396140e-01  1.9945037483168698e-01  2.1454708133801637e-01  2.2920459467397972e-01  2.4291802034965515e-01  2.5552595310977699e-01  2.6681654632065677e-01  2.7704967908828787e-01  2.8571703631319118e-01  2.9299412877629438e-01  2.9862830676174884e-01  3.0239050219584895e-01  3.0414244754652553e-01  3.0388255369637113e-01  3.0181649555811974e-01  2.9841475246735127e-01  2.9435127707048026e-01  2.9026171174336346e-01  2.8671161815315810e-01  2.8401355391285543e-01  2.8213126495159752e-01  2.8073415915763567e-01  2.7931638520173152e-01  2.7734584162444720e-01  2.7449928379842414e-01  2.7080563359278254e-01  2.6646801947233262e-01  2.6204206171397554e-01  2.5816344527734786e-01  2.5530130201858808e-01  2.5364149261796665e-01  2.5292226182523547e-01  2.5261671165705379e-01  2.5202897704941379e-01  2.5050717324845118e-01  2.4764379614325838e-01  2.4339498356356942e-01  2.3792633745903921e-01  2.3157141770584092e-01  2.2466535806099219e-01  2.1749834258310582e-01  2.1018713794025534e-01  2.0290406558480073e-01  1.9585169950735765e-01  1.8926823254903408e-01  1.8343682930660951e-01  1.7855937709513600e-01  1.7470553595875046e-01  1.7228089225904875e-01  1.7109864829054702e-01  1.7118044289380016e-01  1.7216571825009724e-01  1.7413123641080977e-01  1.7699039548224837e-01  1.8047129320624758e-01  1.8451251479373079e-01  1.8906688900709565e-01  1.9398662276566495e-01  1.9924563052863742e-01  2.0471874884313931e-01  2.1038909447515727e-01  2.1624065350849905e-01  2.2219111179458703e-01  2.2823251466254502e-01  2.3435610373888988e-01  2.4053668393342256e-01  2.4675094289359845e-01  2.5299059618180758e-01  2.5925123211629275e-01  2.6552138250680873e-01  2.7179909578372463e-01  2.7807241676384437e-01  2.8434333232808839e-01  2.9060624669045554e-01  2.9685865186902594e-01  3.0309948971855188e-01  3.0932607230653636e-01  3.1553763755988762e-01  3.2173346919767237e-01  3.2791249452001020e-01  3.3407408448312470e-01  3.4021781494752884e-01  3.4634335490122919e-01  3.5245013874389919e-01  3.5853829295591905e-01  3.6460750978019058e-01  3.7065759024950190e-01  3.7668854858882761e-01  3.8270019294941199e-01  3.8869229622637408e-01  3.8869028407559925e-01  3.8868538244686263e-01  3.8867769714411021e-01  3.8866836681152012e-01  3.8865902686722081e-01  3.8865132548114617e-01  3.8864639110288651e-01  3.8864438600018253e-01  2.9465097391030876e-01  2.8916636993570388e-01  -2.7776147796004308e-01  -7.2087794936630450e-02  -1.1332767481988887e-02  3.0206488525202579e-02  6.1887883542896670e-02  8.8332054846614175e-02  1.1129651277836913e-01  1.2727586933753585e-01  1.4301013573714674e-01  1.5703677259285187e-01  1.7079411195680111e-01  1.8432704289207189e-01  1.9782750552929282e-01  2.8968614695054506e-01  3.2511708314167487e-01  3.4883467218669501e-01  3.4079835337513276e-01  3.2251647920918491e-01  3.1189649334168945e-01  -6.9265416861506265e-02  2.3576984576231944e-01  3.0806120878972981e-01  2.9938606693057512e-01  2.7658625339568865e-01  3.1795938532808349e-01  2.4628562586417124e-01  2.1145198930840978e-01  2.3580139476212364e-01  2.2571470678050282e-01  2.5205969245157983e-01  2.5202172577275184e-01  2.5435994088371661e-01  2.5986352089985759e-01  2.6846283557698508e-01  2.4014660145448136e-01  2.8123018191710641e-01  2.3518294824849661e-01  2.5542404473063185e-01  3.1379875866855039e-01  1.8995746682952447e-01  2.9564348454812994e-01  2.1446206536990622e-01  2.7109114097168102e-01  1.4574735466444161e-01  2.9612210753651641e-01  2.8876352979446052e-01  2.7288137743399477e-01  1.1332969734372639e-01  2.3585537311522348e-01  3.0615142912298793e-01  1.9398606092888535e-01  9.8535363414133922e-02  1.9199760661217391e-01  1.7754164696303573e-01  1.5101943661852493e-01  8.9461553756971568e-02  1.7160535934964974e-01  3.2641210239848550e-01  3.4045203655233913e-01  3.0385774145586214e-01  7.7890131350760533e-02  6.0383058329897030e-02  1.3235284494803057e-01  1.7567875182011677e-01  1.3701980477802381e-01  -1.3133842252756386e-01  1.9128577294813437e-01  1.3673348231157767e-01  3.5791912520761382e-01  2.0756461560650044e-01  4.1741011730625985e-02  1.1531935848840705e-01  2.2534569254738343e-01  2.5004141533731694e-01  9.2146772784415729e-02  2.8121195992387904e-01  7.0696601154322330e-02  3.0003643572887506e-01  3.1874225034920539e-01  5.1498315678064017e-02  3.5029065719742530e-01  6.5113411841212282e-03  3.8309208045259652e-01  3.2428063863626300e-01  3.2692281826037360e-02  2.1899587008196632e-02  3.6808356166888917e-01  3.0634648876622905e-01  3.2152990020945194e-01  2.4634703722856063e-01  1.8268075403993528e-01  2.3698529179455347e-01  2.6206802186338712e-01  3.6837783637578220e-01  2.8450428864627336e-01  2.7621954070610266e-01  2.5984902926200693e-01  2.5319391028615179e-01  3.1644991736159217e-01  1.3253012087408114e-01  2.9719769312446864e-01  3.3095657754758234e-01  1.2846316488149559e-01  9.4314678187533724e-02  2.7936137331216593e-01  1.0381811019770711e-01  1.2759112175596904e-01  2.6361958342310809e-01  1.6696259959028137e-01  2.1348652809929375e-01  2.5221068370599559e-01  2.6022832280208352e-01  3.0988944911887195e-01  2.4768907157454129e-01  2.4178449482022646e-01  2.3739253544848940e-01  2.3278894696960273e-01  2.6071732644401607e-01  2.8940720021143507e-01  3.0474387158722610e-01  5.0280625703951493e-03  2.1808149285370254e-01  2.0512376616457983e-01  3.8341658348119906e-01  1.9142149766975056e-01  1.7758101383119299e-01  1.6396636950436219e-01  1.4982819794963531e-01  1.3522761247120230e-01  1.1984326500321188e-01  2.8632393261370059e-01  9.8092319773387379e-02  7.3369328360397071e-02  4.3846640737327879e-02  3.0486266541329193e-01  6.5850052369324707e-03  3.4799942941743689e-01  3.4159780713560350e-01  3.3218198934929993e-01  3.1590166163242167e-01  -4.4322934922977494e-02  -5.5406187181826527e-01  6.8896687770356058e-03  3.8294825983994157e-01  1.8196629538099682e-02  3.2379446310556753e-01  3.8366034190714143e-01  4.9968558370914974e-03  3.7959668407174130e-01  3.2304976998243068e-01  3.2346242390305013e-01  3.2226078887465037e-01  3.2478762180907123e-01  3.2378444763097380e-01  3.2707141080997532e-01  3.2583044515449822e-01  3.3049908785427529e-01  3.2888765359311617e-01  3.3485513152045260e-01  3.3276979631616316e-01  3.3890297070622061e-01  3.3539788218130978e-01  3.4017286019144410e-01  3.3490715365584300e-01  3.3651659278099916e-01  3.2938899239129416e-01  3.2740591641726319e-01  3.1903549583043189e-01  3.1339353402853698e-01  3.0565828806432754e-01  3.1771875691871859e-01  3.0816413360655681e-01  2.9549734072748840e-01  3.0213173067532167e-01  3.0270965981407133e-01  2.9395064342485888e-01  2.8457151352060661e-01  2.8029736469841571e-01  2.7488221469683777e-01  2.6931637007956966e-01  2.6880842678125128e-01  2.6402551863995732e-01  2.6663468516292632e-01  2.6516064179312093e-01  2.6966191860624494e-01  2.7294615334272981e-01  2.7635448950534580e-01  2.8430123784091055e-01  2.8491193570192952e-01  2.9705035997243129e-01  2.9326145800781300e-01  3.0826575438079651e-01  2.9988683169386932e-01  3.1655966755150089e-01  3.0459527512285883e-01  3.2127605248193497e-01  3.0647794828283503e-01  3.2252807417104018e-01  3.0672984359870348e-01  3.2014339814873199e-01  3.0548049234632363e-01  3.1865160277450877e-01  2.8671064363591486e-01  2.8166738095498833e-01  3.0289795181923407e-01  3.1311028994756407e-01  3.0125990116713480e-01  3.0915735143259793e-01  2.9879362695893230e-01  3.0509651241537666e-01  2.9714490996224269e-01  3.0185072181337347e-01  2.8382640550978644e-01  2.9591185657915642e-01  2.9947686330374235e-01  2.9419575833692063e-01  2.9786309123406135e-01  2.9415189009827303e-01  2.9714948997399415e-01  2.6873772325237455e-01  2.5846030272910253e-01  3.4166821182138968e-01  2.9350602479795329e-01  2.9688967225718288e-01  2.9308818523249386e-01  2.9687107375079030e-01  2.9275369239014098e-01  2.9690182192836850e-01  2.9270710027171781e-01  2.9256280624909176e-01  2.9673772805645465e-01  2.6798703319172157e-01  2.9250126377518509e-01  2.9623327794264548e-01  2.9256470951207791e-01  2.9527545429718793e-01  2.9271907700144789e-01  2.9371872554920719e-01  3.2805523937615483e-01  2.7593835130082361e-01  2.9270494142391001e-01  2.9161032273853371e-01  2.4990564901269507e-01  2.3750055437578893e-01  2.5807915768209527e-01  2.8911271342475980e-01  2.9245902586882383e-01  2.8878291943800405e-01  2.9199653382763707e-01  2.8544933641865389e-01  2.9101407344846736e-01  2.8205696323910401e-01  3.0000428519937639e-01  2.8828489443773614e-01  3.0077475446740898e-01  3.0448804922911982e-01  2.8963802266412125e-01  2.7867597503963148e-01  2.7137962634790147e-01  2.6624911016499081e-01  2.7537852309385391e-01  2.6194219907843691e-01  2.7221532828760636e-01  2.5854359964113027e-01  2.6945962245232941e-01  2.5639917613418661e-01  2.6679478959256003e-01  2.5481698065281988e-01  2.6369193318277706e-01  2.5341386303259422e-01  2.5990713202941707e-01  2.5125452253059305e-01  2.5453196743350098e-01  2.4755047917903505e-01  2.4737648447690821e-01  2.4201710980291233e-01  2.3838940626803393e-01  2.3430387979167905e-01  2.2742796386042449e-01  2.2432855583841949e-01  3.1924578523365088e-01  2.9069653341495610e-01  2.1502831453896368e-01  2.1271249502909559e-01  2.0170576771769816e-01  2.0002708353561569e-01  2.6185758783351298e-01  3.3280667949699555e-01  1.8777122333678739e-01  1.8694881580378445e-01  2.9642038322650649e-01  2.9147425743739486e-01  2.3361337734281304e-01  2.1959248417672816e-01  2.1764877239077715e-01  2.0052790094418388e-01  1.9016667043818811e-01  1.7841416797166448e-01  1.5728670448229087e-01  1.5347179955310372e-01  1.2804898891404387e-01  1.3021922039281320e-01  9.9355985955993764e-02  1.0964723230934639e-01  7.8599992041236660e-02  9.4118930180891333e-02  6.5019619664935260e-02  8.3391474005451383e-02  5.8336280572552655e-02  7.7722073594185051e-02  5.6774459420870851e-02  7.6056643238613456e-02  5.8947494685319651e-02  7.7209883575146021e-02  6.3271535046956887e-02  8.0127734194057956e-02  6.8891977525044945e-02  8.4133499492008088e-02  7.5981311089444822e-02  9.0007231042926933e-02  9.9243464692234329e-02  1.0277556151846452e-01  9.4963828222983257e-02  1.0666262458762157e-01  9.9363297022282887e-02  1.1063349147339215e-01  1.0513429046394644e-01  1.1519192232439629e-01  1.1402324278265262e-01  1.1370006426113415e-01  9.4345659664997292e-02  1.1064274959316127e-01  1.1987480962989799e-01  1.2550200070786732e-01  1.2914752882980687e-01  1.2460911278322151e-01  1.3280804612371011e-01  1.2944190481316969e-01  1.3684130731249355e-01  1.3428317476323223e-01  1.4124497692590585e-01  1.3824516547651036e-01  1.7643273171149609e-01  6.0659638537463902e-02  1.3904830309768509e-01  1.4558365965166151e-01  1.4820489031308595e-01  1.5213894448901827e-01  1.4991609652814861e-01  1.5593091446035401e-01  1.5436403631533585e-01  1.5991680423253529e-01  3.3900205870775649e-02  1.5852102589072289e-01  1.5879337618808154e-01  1.6388873123239622e-01  3.8965488002075790e-02  1.6308652197103793e-01  1.6803286795145961e-01  1.6877243536396264e-01  1.7299617441774479e-01  1.7226221389745919e-01  1.7705858908734201e-01  1.7805878758683769e-01  1.8184829190071858e-01  1.8113421346071368e-01  1.8571143622937586e-01  1.8527015556937837e-01  1.8973488953688181e-01  1.9024119012766630e-01  1.9408267517697469e-01  1.9384537152040635e-01  1.9801658106600406e-01  1.9795836304842013e-01  2.0201512574126063e-01  1.9136896499908970e-01  8.8046609822219318e-02  5.4073758445662742e-02  2.0203196727576714e-01  2.0602910198360117e-01  2.0605696429787226e-01  2.1011859009532860e-01  2.1023945292434518e-01  2.1421667058419328e-01  2.1015931588313544e-01  1.7400302954035796e-01  1.7421637067202050e-01  1.6129335470810413e-01  1.6250785145279256e-01  1.5011353807309910e-01  1.5246600104771821e-01  1.2156846135891303e-01  2.8995247704582716e-01  3.3010888616990930e-01  2.1450859832631683e-01  2.1833786434704799e-01  1.0157048085579537e-01  2.4466341186923496e-01  2.3437846813932572e-01  2.6083824890400292e-01  1.4107515181889901e-01  1.4460518119731816e-01  1.5956437621282613e-01  1.5188569728023224e-01  1.3902922693977388e-01  1.4601992903643518e-01  1.3572618654322499e-01  1.4172418451605456e-01  1.3417244240663670e-01  1.3857334366348600e-01  1.3390793206187135e-01  1.3617675192889583e-01  1.3420687788190305e-01  1.3405813447188403e-01  1.3454450791981939e-01  1.3196446997967098e-01  1.3439575991636543e-01  1.2962770518763614e-01  1.3336959226687209e-01  1.2688466005437884e-01  1.3122759274131465e-01  1.2370505185832437e-01  1.2813849982347780e-01  1.2006755158036798e-01  1.2417493713326949e-01  1.1607033638796127e-01  1.1927241584910996e-01  1.1159714184397303e-01  1.1348706115984944e-01  1.0672274859047490e-01  1.0772521401555464e-01  1.0153068954978936e-01  1.9183858255636435e-01  1.9452148188630211e-01  1.4837303005821753e-01  2.1885988857833991e-01  2.2260580329179658e-01  2.2212986504289925e-01  2.2648429151656738e-01  2.2597596132783601e-01  2.3037584091290933e-01  2.3085220104030221e-01  2.3471822391277675e-01  2.3539087612899182e-01  2.3918489215833194e-01  2.3860508218243726e-01  2.4302869481747105e-01  2.4352859142966890e-01  2.4744710926376881e-01  2.4799207634317122e-01  2.5191365121738901e-01  2.5135142920730680e-01  2.5587178398063087e-01  2.5643215765335819e-01  2.6039359189924166e-01  2.2054237504466795e-01  1.3266712722402407e-01  1.0128799226562260e-01  9.5984570073602019e-02  9.4978668906597799e-02  9.0236006362636262e-02  8.8554920207394403e-02  8.4259177334471844e-02  2.8829696266680827e-01  2.9050688831986693e-01  2.6112157777727713e-01  2.6501591969950228e-01  2.6437454867063315e-01  2.689707475