<?xml version="1.0"?>
<VTKFile type="UnstructuredGrid"  version="0.1"  >
<UnstructuredGrid>
<Piece  NumberOfPoints="2886" NumberOfCells="5412">
<Points>
<DataArray  type="Float64"  NumberOfComponents="3"  format="ascii">0 0.1 0  0.98 0.1 0  1 0.1 0  1 0 0  1.5 0 0  3 0 0  3 0.3 0  0 0.3 0  0.01975375321854102 0.1 0  0.03918897458218897 0.1 0  0.05831079002627837 0.1 0  0.07712425666319796 0.1 0  0.0956343475259058 0.1 0  0.1138459546796227 0.1 0  0.1317638870668193 0.1 0  0.1493928840275937 0.1 0  0.1667376092280033 0.1 0  0.1838026357802664 0.1 0  0.2005924801287244 0.1 0  0.2171115811543574 0.1 0  0.2333643037107681 0.1 0  0.2493549444060462 0.1 0  0.2650877293306821 0.1 0  0.2805668058011438 0.1 0  0.2957962848620976 0.1 0  0.3107801766802674 0.1 0  0.3255224447361181 0.1 0  0.3400269848175519 0.1 0  0.3542976327080778 0.1 0  0.3683381609158136 0.1 0  0.3821522744564845 0.1 0  0.3957436316838916 0.1 0  0.4091158196437086 0.1 0  0.4222723742184605 0.1 0  0.4352167733293057 0.1 0  0.4479524348643424 0.1 0  0.4604827295467524 0.1 0  0.4728109659990664 0.1 0  0.4849404035409129 0.1 0  0.4968742471455402 0.1 0  0.508615651843175 0.1 0  0.520167721130924 0.1 0  0.5315335063628542 0.1 0  0.5427160117228604 0.1 0  0.5537181940261912 0.1 0  0.564542961924507 0.1 0  0.575193173270606 0.1 0  0.5856716438765114 0.1 0  0.5959811458006617 0.1 0  0.6061243988680743 0.1 0  0.6161040893285659 0.1 0  0.6259228503970299 0.1 0  0.6355832809287655 0.1 0  0.6450879281079505 0.1 0  0.6544393102991295 0.1 0  0.663639896558931 0.1 0  0.6726921201956305 0.1 0  0.6815983691630338 0.1 0  0.6903610031396646 0.1 0  0.6989823343332418 0.1 0  0.7074646404270378 0.1 0  0.7158101645005117 0.1 0  0.7240211149852543 0.1 0  0.7320996585612525 0.1 0  0.7400479319727645 0.1 0  0.7478680336617921 0.1 0  0.755562036504958 0.1 0  0.7631319665092091 0.1 0  0.7705798279317605 0.1 0  0.777907588066146 0.1 0  0.7851171851013118 0.1 0  0.7922105226004981 0.1 0  0.7991894774550319 0.1 0  0.8060558928136696 0.1 0  0.812811583201334 0.1 0  0.8194583352091183 0.1 0  0.8259979035038147 0.1 0  0.8324320194413813 0.1 0  0.8387623808293405 0.1 0  0.8449906627004957 0.1 0  0.8511185094880469 0.1 0  0.8571475426008311 0.1 0  0.8630793533568246 0.1 0  0.8689155114558531 0.1 0  0.8746575581239063 0.1 0  0.8803070109173519 0.1 0  0.885865363938836 0.1 0  0.8913340851680313 0.1 0  0.8967146206523592 0.1 0  0.9020083930695622 0.1 0  0.9072167995950768 0.1 0  0.9123412183131177 0.1 0  0.9173830029719022 0.1 0  0.9223434865647732 0.1 0  0.9272239785872722 0.1 0  0.9320257720706087 0.1 0  0.9367501330378739 0.1 0  0.9413983102716995 0.1 0  0.9459715351562933 0.1 0  0.9504710127113115 0.1 0  0.9548979346500661 0.1 0  0.9592534708344373 0.1 0  0.9635387708980176 0.1 0  0.9677549682252325 0.1 0  0.971903177251235 0.1 0  0.9759844952956497 0.1 0  0.9840000000000086 0.1 0  0.987999999999974 0.1 0  0.9919999999999393 0.1 0  0.9959999999999913 0.1 0  1 0.09591793123533533 0  1 0.09133596463859224 0  1 0.08619288104391448 0  1 0.08041996484521211 0  1 0.07394008421771697 0  1 0.06666666567302955 0  1 0.05850252932209174 0  1 0.04933859630113544 0  1 0.03905242821848202 0  1 0.02750659386753798 0  1 0.01454683679239736 0  1.015625 0 0  1.03125 0 0  1.046875 0 0  1.0625 0 0  1.078125 0 0  1.09375 0 0  1.109375 0 0  1.125 0 0  1.140625 0 0  1.15625 0 0  1.171875 0 0  1.1875 0 0  1.203125 0 0  1.21875 0 0  1.234375 0 0  1.25 0 0  1.265625 0 0  1.28125 0 0  1.296875 0 0  1.3125 0 0  1.328125 0 0  1.34375 0 0  1.359375 0 0  1.375 0 0  1.390625 0 0  1.40625 0 0  1.421875 0 0  1.4375 0 0  1.453125 0 0  1.46875 0 0  1.484375 0 0  1.515920751924515 0 0  1.531989369316721 0 0  1.54820720925872 0 0  1.564575665560501 0 0  1.581096138674279 0 0  1.597770029901263 0 0  1.614598783332311 0 0  1.631583831055205 0 0  1.64872661129721 0 0  1.666028606716533 0 0  1.683491276608443 0 0  1.701116134125304 0 0  1.718904673324128 0 0  1.736858414799339 0 0  1.754978895814663 0 0  1.773267661782904 0 0  1.791726281103402 0 0  1.810356325314689 0 0  1.8291593848892 0 0  1.848137076690385 0 0  1.867291007717254 0 0  1.886622833871288 0 0  1.90613418642363 0 0  1.925826753299799 0 0  1.945702199101513 0 0  1.96576223584749 0 0  1.986008569283268 0 0  2.006442931928877 0 0  2.02706707547783 0 0  2.047882750887917 0 0  2.06889175187935 0 0  2.090095860038271 0 0  2.111496891648636 0 0  2.133096679109554 0 0  2.154897066851056 0 0  2.176899916687499 0 0  2.199107102752146 0 0  2.22152053937028 0 0  2.244142122958061 0 0  2.266973806444078 0 0  2.290017523268154 0 0  2.313275249499252 0 0  2.336748971745516 0 0  2.360440702338606 0 0  2.384352453384031 0 0  2.408486280477412 0 0  2.432844240041185 0 0  2.457428414757088 0 0  2.482240901796653 0 0  2.507283830121838 0 0  2.532559332080812 0 0  2.558069568787417 0 0  2.583816724966441 0 0  2.60980299606584 0 0  2.636030600971886 0 0  2.662501790984011 0 0  2.689218818279327 0 0  2.716183964547616 0 0  2.743399548861297 0 0  2.77086788244719 0 0  2.798591312896326 0 0  2.826572223178268 0 0  2.854812990138617 0 0  2.883316031690714 0 0  2.912083780657189 0 0  2.941118704633482 0 0  2.970423276998917 0 0  3 0.02999999999994495 0  3 0.05999999999987042 0  3 0.089999999999783 0  3 0.119999999999701 0  3 0.149999999999619 0  3 0.179999999999692 0  3 0.2099999999997737 0  3 0.2399999999998511 0  3 0.2699999999999185 0  2.970138294777171 0.3 0  2.940375666438236 0.3 0  2.910711782853056 0.3 0  2.881146331305122 0.3 0  2.851678975030285 0.3 0  2.822309388626621 0.3 0  2.793037250095074 0.3 0  2.76386223529133 0.3 0  2.734784017903872 0.3 0  2.705802289276642 0.3 0  2.676916713794697 0.3 0  2.648126987654635 0.3 0  2.619432780406184 0.3 0  2.590833779385199 0.3 0  2.562329669847737 0.3 0  2.533920134950189 0.3 0  2.505604855727852 0.3 0  2.477383539822502 0.3 0  2.449255847639465 0.3 0  2.421221492569094 0.3 0  2.393280152486815 0.3 0  2.36543151914496 0.3 0  2.337675285481809 0.3 0  2.310011142385583 0.3 0  2.282438797441587 0.3 0  2.254957931061538 0.3 0  2.227568248063605 0.3 0  2.200269436651085 0.3 0  2.173061204949961 0.3 0  2.145943251515011 0.3 0  2.118915272469994 0.3 0  2.091976978084957 0.3 0  2.065128060700849 0.3 0  2.038368218849433 0.3 0  2.01169717777258 0.3 0  1.985114624111908 0.3 0  1.958620267850966 0.3 0  1.93221382054972 0.3 0  1.905894991850698 0.3 0  1.879663489459713 0.3 0  1.853519019126419 0.3 0  1.827461291053897 0.3 0  1.801490031354372 0.3 0  1.775604937580312 0.3 0  1.74980572560258 0.3 0  1.724092118631866 0.3 0  1.698463829173586 0.3 0  1.672920575782554 0.3 0  1.647462076974085 0.3 0  1.622088043536933 0.3 0  1.5967981978949 0.3 0  1.571592267767068 0.3 0  1.546469970305736 0.3 0  1.521431023814044 0.3 0  1.496475156230927 0.3 0  1.471602093687753 0.3 0  1.446811560490646 0.3 0  1.422103279101731 0.3 0  1.397476971708191 0.3 0  1.37293238939876 0.3 0  1.348469231419202 0.3 0  1.324087248732772 0.3 0  1.299786165921677 0.3 0  1.275565710847046 0.3 0  1.251425617644257 0.3 0  1.227365618676339 0.3 0  1.203385446174014 0.3 0  1.179484853067473 0.3 0  1.155663548773374 0.3 0  1.131921292279077 0.3 0  1.108257802159295 0.3 0  1.084672829009693 0.3 0  1.061166115303374 0.3 0  1.037737392995421 0.3 0  1.01438640299116 0.3 0  0.991112899770314 0.3 0  0.9679166155523955 0.3 0  0.944797284182564 0.3 0  0.921754678526042 0.3 0  0.8987885143602501 0.3 0  0.8758985548820624 0.3 0  0.8530845484099929 0.3 0  0.8303462351786988 0.3 0  0.8076833651172373 0.3 0  0.7850956864865304 0.3 0  0.7625829601354557 0.3 0  0.7401449314598274 0.3 0  0.717781337993959 0.3 0  0.6954919649675473 0.3 0  0.6732765357561226 0.3 0  0.6511348120768439 0.3 0  0.6290665642016573 0.3 0  0.6070715355430467 0.3 0  0.5851494825775325 0.3 0  0.5633001690203812 0.3 0  0.5415233562273221 0.3 0  0.5198187909431873 0.3 0  0.4981862401387795 0.3 0  0.4766254686134248 0.3 0  0.4551362360485234 0.3 0  0.4337182975262159 0.3 0  0.4123714223228037 0.3 0  0.3910953802377493 0.3 0  0.3698899313205595 0.3 0  0.3487548463710963 0.3 0  0.3276898864081783 0.3 0  0.3066948129116018 0.3 0  0.2857694003037476 0.3 0  0.2649134227095047 0.3 0  0.2441266417321288 0.3 0  0.2234088223399122 0.3 0  0.2027597568977288 0.3 0  0.1821792020676698 0.3 0  0.1616669305402443 0.3 0  0.1412227158799362 0.3 0  0.12084633013886 0.3 0  0.1005375673448281 0.3 0  0.08029618164595353 0.3 0  0.06012194778526769 0.3 0  0.04001466495039718 0.3 0  0.01997408913631205 0.3 0  0 0.2800000000000553 0  0 0.2600000000001105 0  0 0.2400000000001658 0  0 0.2200000000002211 0  0 0.2000000000002764 0  0 0.1800000000002244 0  0 0.1600000000001691 0  0 0.140000000000115 0  0 0.1200000000000564 0  1.13346801534201 0.01255848438672509 0  1.003577645172735 0.09351054173913405 0  0.9777559943702486 0.1034978156913738 0  0.9524533750752109 0.1040889939962738 0  0.9296242411226409 0.1041520033606139 0  0.9046110503652111 0.104409422380137 0  0.8777709649694228 0.1053360318797398 0  0.8483859145648608 0.1061007868330701 0  0.8162363822948977 0.1052777104363292 0  0.7893110024210437 0.1060761643971561 0  0.7587949382612539 0.1067265405088633 0  0.7280603867732535 0.1069398153264939 0  0.6947001989413015 0.1075609887579097 0  0.6590363283767549 0.1076715322596598 0  0.6210028614493155 0.1072970410408442 0  1.1953125 0.01353164693413185 0  1.258193991486058 0.01269648635163345 0  1.3201967268638 0.01407907077719561 0  1.383538555392096 0.01434101079053473 0  1.445312500000001 0.01303671693628424 0  1.508925448095738 0.01398525724792267 0  0.9939176689634008 0.1034638089837981 0  1.120967497222226 0.2796788492172345 0  1.572835902117391 0.01424132418857359 0  1.637573277451887 0.01212536916586023 0  1.709730776795181 0.01466855431023635 0  1.005631976950563 0.07074019818158772 0  1.784944696816299 0.01454708406461822 0  0.5805605730631225 0.1101465090472147 0  1.855621181165637 0.01550931272897607 0  0.5366111276616774 0.1096761308243709 0  1.935200147913231 0.01760344159641829 0  1.214922267975168 0.2799787705802257 0  1.31178773425331 0.2792
[...]
<PointData  Scalars="pressure"> 
<DataArray  type="Float64"  Name="pressure"  format="ascii">4.8135054534241183e-02  -7.7790773822078374e-01  -3.3049759226131264e-02  -1.2670080047154210e-02  3.9339029417041128e-02  0.0000000000000000e+00  0.0000000000000000e+00  4.8207723597130145e-02  4.2208967365849621e-02  3.6377734158654237e-02  3.0639526474281243e-02  2.4992753811120972e-02  1.9435707821644648e-02  1.3966809649016611e-02  8.5846955729312509e-03  3.2874614337050712e-03  -1.9262555421121533e-03  -7.0579937949001650e-03  -1.2109597017195727e-02  -1.7082577859034727e-02  -2.1978293624697654e-02  -2.6798758132864420e-02  -3.1545531696113779e-02  -3.6219576561005988e-02  -4.0823717464746355e-02  -4.5359057965416345e-02  -4.9827304838264364e-02  -5.4230917054854812e-02  -5.8571161858203345e-02  -6.2849179443791661e-02  -6.7068394909082396e-02  -7.1229751543193442e-02  -7.5336403777737260e-02  -7.9389745616497892e-02  -8.3390899066239782e-02  -8.7343249058908848e-02  -9.1249490033122507e-02  -9.5111166990132348e-02  -9.8930779468362304e-02  -1.0271159702519098e-01  -1.0645502872302048e-01  -1.1016505927362455e-01  -1.1384371217339659e-01  -1.1749465306864038e-01  -1.2112063458230297e-01  -1.2472085672003584e-01  -1.2830580399386179e-01  -1.3187406377043170e-01  -1.3542970121226960e-01  -1.3897821555197046e-01  -1.4252273018306699e-01  -1.4606109846921181e-01  -1.4960709897075536e-01  -1.5315907306753129e-01  -1.5672203076532162e-01  -1.6030125955950139e-01  -1.6390072048919124e-01  -1.6752529515855691e-01  -1.7118141672024825e-01  -1.7487314211942742e-01  -1.7860510148815648e-01  -1.8238215033219576e-01  -1.8621606368176297e-01  -1.9010599993305957e-01  -1.9406127534947204e-01  -1.9808391549878945e-01  -2.0219334468116126e-01  -2.0639014212450710e-01  -2.1067283106370294e-01  -2.1505851631410583e-01  -2.1956296006675824e-01  -2.2417965183750083e-01  -2.2893238200618135e-01  -2.3382813225432353e-01  -2.3886858704231273e-01  -2.4407436547720945e-01  -2.4945749729317174e-01  -2.5503096088781935e-01  -2.6082126690558283e-01  -2.6683470068553311e-01  -2.7307868287584347e-01  -2.7956846450566192e-01  -2.8636777740097386e-01  -2.9346914498821197e-01  -3.0089542903395672e-01  -3.0869205768834945e-01  -3.1688238377238570e-01  -3.2550734930780989e-01  -3.3460871723752511e-01  -3.4426326196919654e-01  -3.5451567284529228e-01  -3.6541651992180790e-01  -3.7708585750445456e-01  -3.8962143620412792e-01  -4.0314650839344729e-01  -4.1782741500575638e-01  -4.3386446696778114e-01  -4.5151904713749585e-01  -4.7114830784117734e-01  -4.9324117435467341e-01  -5.1848441249330790e-01  -5.4780683654418838e-01  -5.8306746671165732e-01  -6.2690606835997564e-01  -6.8208945962163081e-01  -7.8470646030806945e-01  -1.5916374678509533e+00  -1.4652016969139980e+00  -1.0293814235769987e+00  -6.1701761343331774e-01  -1.4800776212466296e-01  -7.0401059919816919e-02  -5.4699061847179521e-02  -4.0383806417451727e-02  -3.1392428941583214e-02  -2.5051633820097445e-02  -2.0343161887807916e-02  -1.6524383261099333e-02  -1.3593765437475747e-02  -1.1873089131413770e-02  -1.1911039880758978e-02  -1.3599826168335225e-02  -1.3590859967498941e-02  -1.1881213856907838e-02  -8.4951079537723771e-03  -3.3719969329034081e-03  3.4732454844084515e-03  1.1991857407191163e-02  2.1985969517654955e-02  3.2915623295791473e-02  4.4207587955950783e-02  5.5316609467374815e-02  6.5678851765563540e-02  7.4864361170408303e-02  8.2542078931675505e-02  8.8478376867500180e-02  9.2605200385223851e-02  9.4957232500469280e-02  9.5643965969908096e-02  9.4883082736740551e-02  9.2829993409111439e-02  8.9694534688605998e-02  8.5858905576508771e-02  8.1332893395487604e-02  7.6476807892468981e-02  7.1420532322579250e-02  6.6311081281443376e-02  6.1224164657469521e-02  5.6309219820731823e-02  5.1610305075412519e-02  4.7198149439228662e-02  4.3100742520163993e-02  3.5862245038442077e-02  3.2724223067081046e-02  2.9931815469350802e-02  2.7458115448107303e-02  2.5317944632585986e-02  2.3521413673425435e-02  2.1968689775268301e-02  2.0707823264580007e-02  1.9729622888931254e-02  1.8991827817514993e-02  1.8450850297586464e-02  1.8112890936448019e-02  1.7959304721956119e-02  1.7959052381157439e-02  1.8099091386966241e-02  1.8363306724748594e-02  1.8725507026905938e-02  1.9179524124341756e-02  1.9708852521042989e-02  2.0291824851202067e-02  2.0925730409892797e-02  2.1590763938796012e-02  2.2274260670237068e-02  2.2974478684299575e-02  2.3670310421039231e-02  2.4367171652816041e-02  2.5039373980035383e-02  2.5692215658733870e-02  2.6313679863892343e-02  2.6901099507411499e-02  2.7449188925787030e-02  2.7950410933152460e-02  2.8400305093145724e-02  2.8794938446767112e-02  2.9131205969501431e-02  2.9404909338528920e-02  2.9613102525137300e-02  2.9753166088437821e-02  2.9822245848339656e-02  2.9819116955070869e-02  2.9742245976220757e-02  2.9589908641195532e-02  2.9361219501267865e-02  2.9055517818841605e-02  2.8671127667786490e-02  2.8207914933904989e-02  2.7668113519005541e-02  2.7049617560358022e-02  2.6348315539867828e-02  2.5580608400189494e-02  2.4726860981745823e-02  2.3808365363586569e-02  2.2805449300442787e-02  2.1739342442014649e-02  2.0600136954974462e-02  1.9380916163933788e-02  1.8106936455409846e-02  1.6753758540507646e-02  1.5343583516627455e-02  1.3868809975780589e-02  1.2330757489007216e-02  1.0729302229819210e-02  9.0731182269431585e-03  7.3639941967336168e-03  5.5945567926764779e-03  3.7898611497975540e-03  1.9242201461505048e-03  0.0000000000000000e+00  0.0000000000000000e+00  0.0000000000000000e+00  0.0000000000000000e+00  0.0000000000000000e+00  0.0000000000000000e+00  0.0000000000000000e+00  0.0000000000000000e+00  0.0000000000000000e+00  2.1930624808908024e-03  4.2291987923633988e-03  6.2460810174281983e-03  8.2123426239127714e-03  1.0132304073012650e-02  1.2007432609647803e-02  1.3838825879539369e-02  1.5626089883271910e-02  1.7367797133447133e-02  1.9064017060038536e-02  2.0712398999596562e-02  2.2312786913199479e-02  2.3862056658757857e-02  2.5359032894055503e-02  2.6800546530615289e-02  2.8184223073673804e-02  2.9509159401801922e-02  3.0768092117349401e-02  3.1957927688961059e-02  3.3074004915742521e-02  3.4111691725061156e-02  3.5063595634397746e-02  3.5926238400928061e-02  3.6691688810096851e-02  3.7347354864018557e-02  3.7891627804084810e-02  3.8312971998667185e-02  3.8598586368022179e-02  3.8740911961970673e-02  3.8731752609999268e-02  3.8558534573426909e-02  3.8211013274355311e-02  3.7696488725420002e-02  3.6992955437189147e-02  3.6079454150793361e-02  3.4989182292272721e-02  3.3686119531837207e-02  3.2186684519177736e-02  3.0481419899078377e-02  2.8587569822272625e-02  2.6496986578887799e-02  2.4223771763426660e-02  2.1783165981939048e-02  1.9183627114345209e-02  1.6440602259193082e-02  1.3571926010959965e-02  1.0592453929357317e-02  7.5201718947558744e-03  4.3792284593254707e-03  1.1856084400785039e-03  -2.0435655293513325e-03  -5.2920753097079002e-03  -8.5457920716808782e-03  -1.1794214000614428e-02  -1.5029483425425498e-02  -1.8247572673145550e-02  -2.1449694053323407e-02  -2.4637306345059281e-02  -2.7825416057370711e-02  -3.1025767211421269e-02  -3.4258085839190114e-02  -3.7550071279271333e-02  -4.0932529077948851e-02  -4.4447265790366980e-02  -4.8140435841388982e-02  -5.2068356925271647e-02  -5.6290689846996110e-02  -6.0888263927414414e-02  -6.5927766914403788e-02  -7.1500695063425407e-02  -7.7690179642421198e-02  -8.4562579059592080e-02  -9.2146679640926987e-02  -1.0041456096709737e-01  -1.0918136709857061e-01  -1.1823913194052897e-01  -1.2716766865882187e-01  -1.3556732435191471e-01  -1.4305659295180653e-01  -1.4946412067661649e-01  -1.5427333058672349e-01  -1.5762245119219609e-01  -1.5944036144407031e-01  -1.6012614083200191e-01  -1.5957904901347683e-01  -1.5790490297326390e-01  -1.5542142136638873e-01  -1.5221514683517567e-01  -1.4834028110790717e-01  -1.4398283420410421e-01  -1.3917854861712148e-01  -1.3408449397400080e-01  -1.2872518480220163e-01  -1.2312121516943075e-01  -1.1737796912802984e-01  -1.1150762961531434e-01  -1.0552100807646854e-01  -9.9451534777499156e-02  -9.3329021753952593e-02  -8.7165464672849371e-02  -8.0966192760894146e-02  -7.4746643607480040e-02  -6.8509131393843237e-02  -6.2270068873140953e-02  -5.6026483127177583e-02  -4.9786149226703817e-02  -4.3552311246891275e-02  -3.7326522218542019e-02  -3.1112391356340054e-02  -2.4911061123861829e-02  -1.8723482977080309e-02  -1.2551159740463114e-02  -6.3950008942049762e-03  -2.5560470945536716e-04  5.8665369116103431e-03  1.1970603656650824e-02  1.8056746887370852e-02  2.4124518223733311e-02  3.0173600013176011e-02  3.6203995498495352e-02  4.2215396920423184e-02  4.8207443543736524e-02  4.8204425613527238e-02  4.8197050470998933e-02  4.8185469967391606e-02  4.8171401681212034e-02  4.8157318839647696e-02  4.8145714057145891e-02  4.8138289716872826e-02  4.8135282639372071e-02  2.7173045704183597e-02  -6.9914929749262958e-02  -8.6013181886129131e-01  -5.0917726694698651e-01  -4.1257716570265873e-01  -3.5062480399955925e-01  -3.0612032174824794e-01  -2.7096597850994120e-01  -2.4196069115270094e-01  -2.2262429963232278e-01  -2.0423258992003407e-01  -1.8834470764543124e-01  -1.7318053838023659e-01  -1.5860794040785059e-01  -1.4435048900595795e-01  6.8861241549853527e-02  9.2510600678697180e-02  9.0223417806131065e-02  7.3139273847135589e-02  5.3769083266867378e-02  3.7472563498239603e-02  -5.3576129422362428e-01  -7.3570626928265603e-02  2.6653566360844955e-02  2.0633451217184833e-02  1.8335004162767392e-02  -2.8173945336626711e-02  1.8857796763345806e-02  -1.3018865299150273e-01  2.0770613164623447e-02  -1.1553520373169758e-01  2.3501426844366558e-02  -5.3965127360880417e-02  -3.9162720000183934e-02  2.6230148798280669e-02  -2.6285195526041118e-02  -1.0083973954390033e-01  -1.0272261879852376e-02  2.8250575641928691e-02  -8.5381764242908109e-02  4.5084384953158872e-04  2.9576285258911653e-02  5.7657926290939450e-03  -9.5521241284334424e-02  -6.9597074954452318e-02  2.9821191334541503e-02  2.2762199794863502e-02  -5.1844532254802095e-02  2.9198515229069664e-02  2.8858638578554981e-02  3.4179462967147106e-02  -3.4410681352473389e-02  -1.2101208898783308e-01  2.6744645560459475e-02  3.7170964334783542e-02  -1.4513544941222983e-01  3.8479349984615094e-02  2.3312953308464793e-02  -1.5790573389107798e-01  -1.4120260982854080e-02  -6.8750090321843772e-05  1.4791317973743388e-02  1.9980369293965915e-02  1.5876983765503696e-02  3.8283299384629522e-02  -1.5849650535324991e-01  3.6108342926575401e-02  -6.0867136612213590e-01  -1.4631739629311588e-01  3.3459196041946006e-02  1.7406296843972453e-02  -1.3136818838363643e-01  1.1519776706914155e-02  2.8771238078295333e-02  -1.1429929282893209e-01  -9.0073091775360700e-02  2.4532652240454183e-02  -5.9141799641797506e-02  1.9821447121770013e-02  -4.0381111994479670e-02  -2.1709983449107080e-02  1.4681457836692325e-02  9.8123465004188604e-03  1.8259415248050330e-03  4.2597308644060132e-02  -1.5679717245347596e-02  9.2811340458370598e-03  6.3655075769674377e-03  2.7600113781966789e-02  -4.4034685930397555e-02  -9.6448074014968931e-03  -6.2898798215814913e-02  -1.5358383459234132e-01  -1.0293075473754425e-01  -7.8167192911666419e-02  2.7867391734256754e-02  -4.0862921198923409e-03  -1.9771264895850068e-02  -3.2560363525729379e-02  -4.6108898262764639e-02  -2.4094608734611299e-02  3.7458573514921385e-02  -4.3385032883943048e-02  -9.5092635278971570e-03  3.1256625434130658e-02  2.5176923058714253e-02  -6.1284025143647662e-02  2.7885593035238958e-02  2.9502776072440038e-02  -7.7118186361529187e-02  2.9840619887446747e-02  2.9034990766664919e-02  2.7201122947438344e-02  2.4944234631684652e-02  3.1496323170751857e-02  -9.3198137760753669e-02  2.2087620759110520e-02  1.9716772868319157e-02  -1.0831895894410104e-01  1.8323044434293764e-02  1.9008658702872119e-02  2.2979142043200101e-02  1.4978315686705382e-03  -1.2335779069914572e-01  -1.3674218548012201e-01  4.2912671839423024e-02  -1.5108818325709836e-01  -1.6583350922280268e-01  -1.8065885354190681e-01  -1.9645664033149204e-01  -2.1325311798237706e-01  -2.3153594293393470e-01  4.9256077191373135e-02  -2.5846340360475023e-01  -2.9062385372035104e-01  -3.3115739290422858e-01  8.4046271754296631e-02  -3.8539391180834631e-01  8.2918030734693240e-02  9.3992484797543630e-02  6.4104044514987898e-02  4.5107063226351447e-02  -4.6430321981629569e-01  -1.2428340572801513e+00  1.9197400934523950e-03  4.2461229337696617e-02  5.1522563240204112e-03  -1.2725374125604851e-02  4.3151585980507612e-02  1.5108548865507704e-03  3.9112043648745522e-02  -1.1823649823315642e-02  -1.1238458796878063e-02  -9.1267438928875396e-03  -1.1774388167353225e-02  -9.5411598372953602e-03  -1.2408041047931874e-02  -9.3607568929978142e-03  -1.2256668472943537e-02  -8.6238682142100870e-03  -1.1316655245879504e-02  -7.5706999528455006e-03  -1.0672554675526521e-02  -6.7028202351571958e-03  -1.1743794569531885e-02  -7.4694516795861376e-03  -1.5282801839630839e-02  -1.0566607532285758e-02  -2.1337352609643902e-02  -1.6112622078791525e-02  -2.8986106588070663e-02  -2.2581870814839859e-02  -3.6449583153188178e-02  -8.2072089201154497e-03  -1.6559478036958435e-02  -4.4070776736174204e-02  -5.3647156552898541e-02  -3.1297904972045435e-03  -1.1048058091787709e-02  3.3906523215300210e-03  -6.7215367787173555e-03  9.1819142484183425e-03  -3.9078760529990307e-03  1.3959275456083829e-02  3.2535750031078149e-04  1.8121826725039026e-02  2.6891269930070518e-04  1.9721616751788344e-02  3.4273132369566947e-03  2.1401117148459992e-02  3.6805811700903802e-03  2.1652953572969615e-02  3.4267210715139243e-03  2.0940720810838306e-02  2.3243222077517453e-03  1.9449673815529818e-02  1.4515349523588157e-03  1.7473603788809935e-02  -9.9119277962526678e-05  1.5133281206440367e-02  -1.2925478872083736e-03  1.1725369852097035e-02  -2.6165130165826142e-03  1.1392978458789652e-02  -6.0099220687035410e-02  -7.3092211354755410e-02  -4.1756212220783974e-03  7.7827074952538109e-03  -4.5219847286616958e-03  6.3161420279153908e-03  -5.5223924287017938e-03  4.6791499894395265e-03  -5.7694683110678466e-03  3.5286979770920257e-03  -2.4581023130838646e-02  -5.5749307296564903e-03  2.7338904446742207e-03  -6.3025053263587360e-03  2.0609804364908903e-03  -4.4992810751934868e-03  2.2129916995598789e-03  -7.5770129942753950e-02  -9.3713206158562767e-02  -1.4775203668376403e-02  -3.6749227085073480e-03  2.4608391809542839e-03  -2.4345239297779756e-03  3.0005551515993158e-03  -1.0727592245976265e-03  3.7831376903213229e-03  -7.0442024133787459e-02  4.9303174497043246e-04  4.8083347217523636e-03  -1.7184547986931229e-02  2.1901851141011264e-03  6.0102287633944859e-03  4.0099873199832764e-03  7.4063213135976899e-03  5.9633071315990235e-03  8.8932621851723695e-03  -1.6010911349667977e-03  -1.2885331068528570e-02  7.9437270003320948e-03  1.0522815384784641e-02  -9.0104885307292021e-02  -1.0798478911655041e-01  -7.6058875079003566e-02  -1.2998278670648220e-02  9.9814760341263697e-03  1.2262348750048816e-02  1.2032055717436490e-02  1.4041331310767634e-02  1.4103285196227782e-02  1.5776155433978818e-02  9.2401252256783129e-03  1.3182439324118903e-02  8.7935618333405460e-03  1.2986881538432266e-02  1.6155449026441629e-02  1.7537320571474040e-02  1.7256310641414058e-02  1.8702137879546069e-02  1.9282569321783426e-02  2.0146327248908160e-02  2.0999817212787496e-02  2.1620268826136709e-02  2.2673638944056794e-02  2.3092675803933670e-02  2.4285023785702568e-02  2.4508398087684818e-02  2.5821764811867005e-02  2.5862159994056166e-02  2.7291526206610812e-02  2.7156766968800088e-02  2.8655766320781088e-02  2.8328901481279804e-02  2.9905677619110990e-02  2.9453893921785334e-02  3.1068780783078315e-02  3.0480083412072326e-02  3.2145517241726387e-02  3.1420360780189123e-02  1.9301742187963846e-02  -1.4750845472441997e-02  3.3086441421551045e-02  3.2252236417196323e-02  3.3869421559152846e-02  3.2976089421125891e-02  2.4897506006457241e-02  3.6645660347296022e-02  3.4553208865938337e-02  3.3588520028428069e-02  3.9656676172951141e-02  -1.3392892719729680e-02  -1.0011223327876942e-01  -1.1865535272552373e-01  -1.3499570764501120e-01  -1.4274962430952107e-01  -1.6653546100840025e-01  -1.6953675573546448e-01  -2.0665553639586334e-01  -1.9938176533283500e-01  -2.3838052510204200e-01  -2.2616121221455546e-01  -2.7191046114908507e-01  -2.4983787133435295e-01  -2.9350489287772602e-01  -2.6709294685218699e-01  -3.0741548265369339e-01  -2.7880024974284939e-01  -3.1329380268706314e-01  -2.8445473006344113e-01  -3.1329213662041083e-01  -2.8539088438914756e-01  -3.0902215003149125e-01  -2.8307836436610034e-01  -3.0243858846742888e-01  -2.7882395661023290e-01  -2.9453513687564969e-01  -2.7343026496766587e-01  -2.8497966979659012e-01  -2.6575764482340658e-01  -2.5274781270401347e-01  -2.4848765219172111e-01  -2.5956779524255064e-01  -2.4391617070415614e-01  -2.5431390273461152e-01  -2.3935414273866359e-01  -2.4731659020584235e-01  -2.3408254350368710e-01  -2.3628727221404378e-01  -2.3321170676038661e-01  -2.5929852543288462e-01  -2.4074648541960825e-01  -2.2874538546916226e-01  -2.2066806506525949e-01  -2.1678056392462897e-01  -2.2341183609043794e-01  -2.1295390352544380e-01  -2.1800383890568562e-01  -2.0865811660231542e-01  -2.1261428911630281e-01  -2.0388899015935721e-01  -2.0534592546585090e-01  -1.9395833575604590e-01  -3.2431174374213356e-01  -2.0733473294375609e-01  -1.9925730384003032e-01  -1.9523811858196286e-01  -1.9118805507684589e-01  -1.9466152594660982e-01  -1.8734571477231235e-01  -1.8993849251319445e-01  -1.8325031875130571e-01  -3.4977836430398040e-01  -1.8346589146822775e-01  -1.8524200165791804e-01  -1.7917703920685449e-01  -3.3778366678232391e-01  -1.8069838341813613e-01  -1.7488863468675117e-01  -1.7334529619391600e-01  -1.6907822551869336e-01  -1.7052935476945358e-01  -1.6500313812366346e-01  -1.6319247330852307e-01  -1.5950313316509662e-01  -1.6090544170199750e-01  -1.5570949192529221e-01  -1.5673099831987986e-01  -1.5173002617340894e-01  -1.5060446832712371e-01  -1.4688133067087769e-01  -1.4763982889624103e-01  -1.4303097817361154e-01  -1.4352009162562779e-01  -1.3908251116102230e-01  -1.4448889594494951e-01  -2.6948038685322484e-01  -3.1531872926548626e-01  -1.3942602609576210e-01  -1.3509939877437555e-01  -1.3468486643119973e-01  -1.3069857000137536e-01  -1.3089977543125605e-01  -1.2665877324255517e-01  -1.3026459345643482e-01  3.5152665990378362e-02  3.4103383704024035e-02  3.5606692471471191e-02  3.4500144222246211e-02  3.5930766638374884e-02  3.4782699198360967e-02  -2.2800859535722945e-01  -9.2006802455000484e-03  -1.4714184806436667e-02  -1.2662982110751544e-01  -1.2257113103143920e-01  -2.5264804133804353e-01  2.4427077076918231e-02  2.9700554427396452e-02  1.8408016123892371e-02  3.6132936561994920e-02  3.4952504304545606e-02  3.3477005784664088e-02  3.3637322986640461e-02  3.5013596837439778e-02  3.3687211152027025e-02  3.4956112675323801e-02  3.3631156058649435e-02  3.4803499737228794e-02  3.3494930787698052e-02  3.4544943040288795e-02  3.3253228601448921e-02  3.4195963245112530e-02  3.2925993662894372e-02  3.3765989604930255e-02  3.2498282111553520e-02  3.3235423956813261e-02  3.1983260714225789e-02  3.2611573514612996e-02  3.1373888489388428e-02  3.1888025066614964e-02  3.0679189408779346e-02  3.1090890420152100e-02  2.9902775083293625e-02  3.0224162223661873e-02  2.9042270835735570e-02  2.9272461247219165e-02  2.8109288351539898e-02  2.8208218857958191e-02  2.7088446188605921e-02  2.7148817127518543e-02  2.6008226468825658e-02  3.2386030342266232e-02  -1.4582315759624856e-01  -1.9721460615267053e-01  -1.2226598699465338e-01  -1.1832085253714715e-01  -1.1856187380462394e-01  -1.1425301326514181e-01  -1.1451967651205897e-01  -1.1019040457440404e-01  -1.0991790506121828e-01  -1.0590039823080404e-01  -1.0539840966400137e-01  -1.0147237908924768e-01  -1.0188245812600008e-01  -9.7511142736547055e-02  -9.7153614178408829e-02  -9.3132004791196502e-02  -9.2702916407241140e-02  -8.8692126856917047e-02  -8.91388000351