<?xml version="1.0"?>
<VTKFile type="UnstructuredGrid"  version="0.1"  >
<UnstructuredGrid>
<Piece  NumberOfPoints="2886" NumberOfCells="5412">
<Points>
<DataArray  type="Float64"  NumberOfComponents="3"  format="ascii">0 0.1 0  0.98 0.1 0  1 0.1 0  1 0 0  1.5 0 0  3 0 0  3 0.3 0  0 0.3 0  0.01975375321854102 0.1 0  0.03918897458218897 0.1 0  0.05831079002627837 0.1 0  0.07712425666319796 0.1 0  0.0956343475259058 0.1 0  0.1138459546796227 0.1 0  0.1317638870668193 0.1 0  0.1493928840275937 0.1 0  0.1667376092280033 0.1 0  0.1838026357802664 0.1 0  0.2005924801287244 0.1 0  0.2171115811543574 0.1 0  0.2333643037107681 0.1 0  0.2493549444060462 0.1 0  0.2650877293306821 0.1 0  0.2805668058011438 0.1 0  0.2957962848620976 0.1 0  0.3107801766802674 0.1 0  0.3255224447361181 0.1 0  0.3400269848175519 0.1 0  0.3542976327080778 0.1 0  0.3683381609158136 0.1 0  0.3821522744564845 0.1 0  0.3957436316838916 0.1 0  0.4091158196437086 0.1 0  0.4222723742184605 0.1 0  0.4352167733293057 0.1 0  0.4479524348643424 0.1 0  0.4604827295467524 0.1 0  0.4728109659990664 0.1 0  0.4849404035409129 0.1 0  0.4968742471455402 0.1 0  0.508615651843175 0.1 0  0.520167721130924 0.1 0  0.5315335063628542 0.1 0  0.5427160117228604 0.1 0  0.5537181940261912 0.1 0  0.564542961924507 0.1 0  0.575193173270606 0.1 0  0.5856716438765114 0.1 0  0.5959811458006617 0.1 0  0.6061243988680743 0.1 0  0.6161040893285659 0.1 0  0.6259228503970299 0.1 0  0.6355832809287655 0.1 0  0.6450879281079505 0.1 0  0.6544393102991295 0.1 0  0.663639896558931 0.1 0  0.6726921201956305 0.1 0  0.6815983691630338 0.1 0  0.6903610031396646 0.1 0  0.6989823343332418 0.1 0  0.7074646404270378 0.1 0  0.7158101645005117 0.1 0  0.7240211149852543 0.1 0  0.7320996585612525 0.1 0  0.7400479319727645 0.1 0  0.7478680336617921 0.1 0  0.755562036504958 0.1 0  0.7631319665092091 0.1 0  0.7705798279317605 0.1 0  0.777907588066146 0.1 0  0.7851171851013118 0.1 0  0.7922105226004981 0.1 0  0.7991894774550319 0.1 0  0.8060558928136696 0.1 0  0.812811583201334 0.1 0  0.8194583352091183 0.1 0  0.8259979035038147 0.1 0  0.8324320194413813 0.1 0  0.8387623808293405 0.1 0  0.8449906627004957 0.1 0  0.8511185094880469 0.1 0  0.8571475426008311 0.1 0  0.8630793533568246 0.1 0  0.8689155114558531 0.1 0  0.8746575581239063 0.1 0  0.8803070109173519 0.1 0  0.885865363938836 0.1 0  0.8913340851680313 0.1 0  0.8967146206523592 0.1 0  0.9020083930695622 0.1 0  0.9072167995950768 0.1 0  0.9123412183131177 0.1 0  0.9173830029719022 0.1 0  0.9223434865647732 0.1 0  0.9272239785872722 0.1 0  0.9320257720706087 0.1 0  0.9367501330378739 0.1 0  0.9413983102716995 0.1 0  0.9459715351562933 0.1 0  0.9504710127113115 0.1 0  0.9548979346500661 0.1 0  0.9592534708344373 0.1 0  0.9635387708980176 0.1 0  0.9677549682252325 0.1 0  0.971903177251235 0.1 0  0.9759844952956497 0.1 0  0.9840000000000086 0.1 0  0.987999999999974 0.1 0  0.9919999999999393 0.1 0  0.9959999999999913 0.1 0  1 0.09591793123533533 0  1 0.09133596463859224 0  1 0.08619288104391448 0  1 0.08041996484521211 0  1 0.07394008421771697 0  1 0.06666666567302955 0  1 0.05850252932209174 0  1 0.04933859630113544 0  1 0.03905242821848202 0  1 0.02750659386753798 0  1 0.01454683679239736 0  1.015625 0 0  1.03125 0 0  1.046875 0 0  1.0625 0 0  1.078125 0 0  1.09375 0 0  1.109375 0 0  1.125 0 0  1.140625 0 0  1.15625 0 0  1.171875 0 0  1.1875 0 0  1.203125 0 0  1.21875 0 0  1.234375 0 0  1.25 0 0  1.265625 0 0  1.28125 0 0  1.296875 0 0  1.3125 0 0  1.328125 0 0  1.34375 0 0  1.359375 0 0  1.375 0 0  1.390625 0 0  1.40625 0 0  1.421875 0 0  1.4375 0 0  1.453125 0 0  1.46875 0 0  1.484375 0 0  1.515920751924515 0 0  1.531989369316721 0 0  1.54820720925872 0 0  1.564575665560501 0 0  1.581096138674279 0 0  1.597770029901263 0 0  1.614598783332311 0 0  1.631583831055205 0 0  1.64872661129721 0 0  1.666028606716533 0 0  1.683491276608443 0 0  1.701116134125304 0 0  1.718904673324128 0 0  1.736858414799339 0 0  1.754978895814663 0 0  1.773267661782904 0 0  1.791726281103402 0 0  1.810356325314689 0 0  1.8291593848892 0 0  1.848137076690385 0 0  1.867291007717254 0 0  1.886622833871288 0 0  1.90613418642363 0 0  1.925826753299799 0 0  1.945702199101513 0 0  1.96576223584749 0 0  1.986008569283268 0 0  2.006442931928877 0 0  2.02706707547783 0 0  2.047882750887917 0 0  2.06889175187935 0 0  2.090095860038271 0 0  2.111496891648636 0 0  2.133096679109554 0 0  2.154897066851056 0 0  2.176899916687499 0 0  2.199107102752146 0 0  2.22152053937028 0 0  2.244142122958061 0 0  2.266973806444078 0 0  2.290017523268154 0 0  2.313275249499252 0 0  2.336748971745516 0 0  2.360440702338606 0 0  2.384352453384031 0 0  2.408486280477412 0 0  2.432844240041185 0 0  2.457428414757088 0 0  2.482240901796653 0 0  2.507283830121838 0 0  2.532559332080812 0 0  2.558069568787417 0 0  2.583816724966441 0 0  2.60980299606584 0 0  2.636030600971886 0 0  2.662501790984011 0 0  2.689218818279327 0 0  2.716183964547616 0 0  2.743399548861297 0 0  2.77086788244719 0 0  2.798591312896326 0 0  2.826572223178268 0 0  2.854812990138617 0 0  2.883316031690714 0 0  2.912083780657189 0 0  2.941118704633482 0 0  2.970423276998917 0 0  3 0.02999999999994495 0  3 0.05999999999987042 0  3 0.089999999999783 0  3 0.119999999999701 0  3 0.149999999999619 0  3 0.179999999999692 0  3 0.2099999999997737 0  3 0.2399999999998511 0  3 0.2699999999999185 0  2.970138294777171 0.3 0  2.940375666438236 0.3 0  2.910711782853056 0.3 0  2.881146331305122 0.3 0  2.851678975030285 0.3 0  2.822309388626621 0.3 0  2.793037250095074 0.3 0  2.76386223529133 0.3 0  2.734784017903872 0.3 0  2.705802289276642 0.3 0  2.676916713794697 0.3 0  2.648126987654635 0.3 0  2.619432780406184 0.3 0  2.590833779385199 0.3 0  2.562329669847737 0.3 0  2.533920134950189 0.3 0  2.505604855727852 0.3 0  2.477383539822502 0.3 0  2.449255847639465 0.3 0  2.421221492569094 0.3 0  2.393280152486815 0.3 0  2.36543151914496 0.3 0  2.337675285481809 0.3 0  2.310011142385583 0.3 0  2.282438797441587 0.3 0  2.254957931061538 0.3 0  2.227568248063605 0.3 0  2.200269436651085 0.3 0  2.173061204949961 0.3 0  2.145943251515011 0.3 0  2.118915272469994 0.3 0  2.091976978084957 0.3 0  2.065128060700849 0.3 0  2.038368218849433 0.3 0  2.01169717777258 0.3 0  1.985114624111908 0.3 0  1.958620267850966 0.3 0  1.93221382054972 0.3 0  1.905894991850698 0.3 0  1.879663489459713 0.3 0  1.853519019126419 0.3 0  1.827461291053897 0.3 0  1.801490031354372 0.3 0  1.775604937580312 0.3 0  1.74980572560258 0.3 0  1.724092118631866 0.3 0  1.698463829173586 0.3 0  1.672920575782554 0.3 0  1.647462076974085 0.3 0  1.622088043536933 0.3 0  1.5967981978949 0.3 0  1.571592267767068 0.3 0  1.546469970305736 0.3 0  1.521431023814044 0.3 0  1.496475156230927 0.3 0  1.471602093687753 0.3 0  1.446811560490646 0.3 0  1.422103279101731 0.3 0  1.397476971708191 0.3 0  1.37293238939876 0.3 0  1.348469231419202 0.3 0  1.324087248732772 0.3 0  1.299786165921677 0.3 0  1.275565710847046 0.3 0  1.251425617644257 0.3 0  1.227365618676339 0.3 0  1.203385446174014 0.3 0  1.179484853067473 0.3 0  1.155663548773374 0.3 0  1.131921292279077 0.3 0  1.108257802159295 0.3 0  1.084672829009693 0.3 0  1.061166115303374 0.3 0  1.037737392995421 0.3 0  1.01438640299116 0.3 0  0.991112899770314 0.3 0  0.9679166155523955 0.3 0  0.944797284182564 0.3 0  0.921754678526042 0.3 0  0.8987885143602501 0.3 0  0.8758985548820624 0.3 0  0.8530845484099929 0.3 0  0.8303462351786988 0.3 0  0.8076833651172373 0.3 0  0.7850956864865304 0.3 0  0.7625829601354557 0.3 0  0.7401449314598274 0.3 0  0.717781337993959 0.3 0  0.6954919649675473 0.3 0  0.6732765357561226 0.3 0  0.6511348120768439 0.3 0  0.6290665642016573 0.3 0  0.6070715355430467 0.3 0  0.5851494825775325 0.3 0  0.5633001690203812 0.3 0  0.5415233562273221 0.3 0  0.5198187909431873 0.3 0  0.4981862401387795 0.3 0  0.4766254686134248 0.3 0  0.4551362360485234 0.3 0  0.4337182975262159 0.3 0  0.4123714223228037 0.3 0  0.3910953802377493 0.3 0  0.3698899313205595 0.3 0  0.3487548463710963 0.3 0  0.3276898864081783 0.3 0  0.3066948129116018 0.3 0  0.2857694003037476 0.3 0  0.2649134227095047 0.3 0  0.2441266417321288 0.3 0  0.2234088223399122 0.3 0  0.2027597568977288 0.3 0  0.1821792020676698 0.3 0  0.1616669305402443 0.3 0  0.1412227158799362 0.3 0  0.12084633013886 0.3 0  0.1005375673448281 0.3 0  0.08029618164595353 0.3 0  0.06012194778526769 0.3 0  0.04001466495039718 0.3 0  0.01997408913631205 0.3 0  0 0.2800000000000553 0  0 0.2600000000001105 0  0 0.2400000000001658 0  0 0.2200000000002211 0  0 0.2000000000002764 0  0 0.1800000000002244 0  0 0.1600000000001691 0  0 0.140000000000115 0  0 0.1200000000000564 0  1.13346801534201 0.01255848438672509 0  1.003577645172735 0.09351054173913405 0  0.9777559943702486 0.1034978156913738 0  0.9524533750752109 0.1040889939962738 0  0.9296242411226409 0.1041520033606139 0  0.9046110503652111 0.104409422380137 0  0.8777709649694228 0.1053360318797398 0  0.8483859145648608 0.1061007868330701 0  0.8162363822948977 0.1052777104363292 0  0.7893110024210437 0.1060761643971561 0  0.7587949382612539 0.1067265405088633 0  0.7280603867732535 0.1069398153264939 0  0.6947001989413015 0.1075609887579097 0  0.6590363283767549 0.1076715322596598 0  0.6210028614493155 0.1072970410408442 0  1.1953125 0.01353164693413185 0  1.258193991486058 0.01269648635163345 0  1.3201967268638 0.01407907077719561 0  1.383538555392096 0.01434101079053473 0  1.445312500000001 0.01303671693628424 0  1.508925448095738 0.01398525724792267 0  0.9939176689634008 0.1034638089837981 0  1.120967497222226 0.2796788492172345 0  1.572835902117391 0.01424132418857359 0  1.637573277451887 0.01212536916586023 0  1.709730776795181 0.01466855431023635 0  1.005631976950563 0.07074019818158772 0  1.784944696816299 0.01454708406461822 0  0.5805605730631225 0.1101465090472147 0  1.855621181165637 0.01550931272897607 0  0.5366111276616774 0.1096761308243709 0  1.935200147913231 0.01760344159641829 0  1.214922267975168 0.2799787705802257 0  1.31178773425331 0.2792
[...]
<PointData  Scalars="pressure"> 
<DataArray  type="Float64"  Name="pressure"  format="ascii">1.8433703870085829e-02  -1.0307196512658783e+00  -3.2189023319023290e-03  2.8540504655640048e-03  1.8327780514141974e-02  0.0000000000000000e+00  0.0000000000000000e+00  1.8513470919501840e-02  1.2507619787579425e-02  6.6763171727286666e-03  9.3793761155192630e-04  -4.7091192469661562e-03  -1.0266583569744281e-02  -1.5736049794648353e-02  -2.1118872186502016e-02  -2.6417008846605968e-02  -3.1631819787504616e-02  -3.6764860071118649e-02  -4.1818035014378939e-02  -4.6792873905185307e-02  -5.1690740778338379e-02  -5.6513735128569151e-02  -6.1263455265401175e-02  -6.5940823973069329e-02  -7.0548857042439295e-02  -7.5088646984644833e-02  -7.9561963996330587e-02  -8.3971419864398364e-02  -8.8318310459168797e-02  -9.2603754025313331e-02  -9.6831476804598776e-02  -1.0100239522546410e-01  -1.0511991745748586e-01  -1.0918551675197689e-01  -1.1320027200318000e-01  -1.1716790640917581e-01  -1.2109131161505990e-01  -1.2497211097930552e-01  -1.2881300202053972e-01  -1.3261754634292217e-01  -1.3638724664241761e-01  -1.4012645726161352e-01  -1.4383735047145563e-01  -1.4752399044293207e-01  -1.5118943275237032e-01  -1.5483253177610398e-01  -1.5846514254739361e-01  -1.6208568734331968e-01  -1.6569841631333881e-01  -1.6930975853098951e-01  -1.7292315448078549e-01  -1.7653582504937154e-01  -1.8016368194550630e-01  -1.8380467204459738e-01  -1.8746443363101042e-01  -1.9114893711809741e-01  -1.9486276124385504e-01  -1.9861140863037516e-01  -2.0240219040199312e-01  -2.0623986790418880e-01  -2.1012972037908595e-01  -2.1407732185484674e-01  -2.1809628436951231e-01  -2.2218574546806641e-01  -2.2635655856637935e-01  -2.3061125841474209e-01  -2.3497190783976460e-01  -2.3944033667955256e-01  -2.4401439893603319e-01  -2.4871424388938057e-01  -2.5355858154351713e-01  -2.5854033455122388e-01  -2.6368727721192670e-01  -2.6900879288850210e-01  -2.7450677888059150e-01  -2.8020613979753090e-01  -2.8612184286523662e-01  -2.9226985689991475e-01  -2.9868289006388704e-01  -3.0536884060429437e-01  -3.1233909075581096e-01  -3.1961061463805024e-01  -3.2726346913817356e-01  -3.3528992147672665e-01  -3.4371914592947372e-01  -3.5260877600810347e-01  -3.6198939222211396e-01  -3.7191464671807573e-01  -3.8243758727066984e-01  -3.9365890321339303e-01  -4.0563816014338316e-01  -4.1844341422415648e-01  -4.3223245596183668e-01  -4.4713678917907856e-01  -4.6332320315513914e-01  -4.8101659673154745e-01  -5.0049181592880976e-01  -5.2210853976556648e-01  -5.4636307817729768e-01  -5.7394245839307823e-01  -6.0581947192369667e-01  -6.4334429834987039e-01  -6.8918917483754805e-01  -7.4726074251445174e-01  -8.2383219869031232e-01  -9.5758719787973590e-01  -2.1327440906452537e+00  -1.8784841790897786e+00  -1.2896109440919035e+00  -7.3871776407796030e-01  -1.5757735164865691e-01  -6.3553340306318110e-02  -4.5870947616185355e-02  -2.9137455528138678e-02  -1.8702656769155619e-02  -1.1435088581172936e-02  -6.1207592937307757e-03  -1.8430254227339612e-03  1.4825840865002316e-03  3.5363074388157284e-03  3.6569089753696088e-03  1.8700076687588022e-03  2.0698442334130930e-03  4.2340489617926306e-03  8.3528541133569782e-03  1.4455719176176784e-02  2.2399116243526012e-02  3.1919905965352276e-02  4.2583384706964718e-02  5.3609982773770812e-02  6.4263760389434377e-02  7.3910409507946515e-02  8.2005016368824665e-02  8.8241426544949889e-02  9.2447196847083288e-02  9.4572441422825101e-02  9.4760000079331067e-02  9.3221522658240463e-02  9.0207936966066882e-02  8.6051745504253901e-02  8.0996472223378135e-02  7.5251601721019981e-02  6.9240960931383350e-02  6.2961457261332593e-02  5.6745105108032497e-02  5.0686429636274712e-02  4.4888044811606367e-02  3.9410110232153468e-02  3.4327562655751591e-02  2.9659713896118697e-02  2.5442249587347619e-02  2.1667166772933583e-02  1.5359388869592525e-02  1.2787303314916836e-02  1.0609423401650768e-02  8.7811269656181776e-03  7.2958875176675000e-03  6.1722591770707507e-03  5.2793269992675073e-03  4.6739168823682819e-03  4.3380439167268556e-03  4.2246986496831552e-03  4.2898034269822673e-03  4.5349568535543710e-03  4.9416834816858922e-03  5.4782907672331462e-03  6.1309489035072185e-03  6.8842826490302248e-03  7.7123769761158027e-03  8.6095480339801519e-03  9.5606830946938469e-03  1.0545786071027515e-02  1.1561395171369778e-02  1.2590004925279898e-02  1.3619574189690387e-02  1.4649775253925270e-02  1.5660151098009108e-02  1.6656976011167349e-02  1.7616312813993406e-02  1.8543349194106541e-02  1.9427122257441570e-02  2.0265373414381577e-02  2.1054084756688012e-02  2.1785970081563813e-02  2.2457637693425646e-02  2.3065640088615558e-02  2.3607474948422639e-02  2.4079720731128147e-02  2.4480040135053720e-02  2.4806482784552414e-02  2.5056830478148454e-02  2.5230490892297081e-02  2.5326456318107867e-02  2.5343507557637212e-02  2.5281261726504287e-02  2.5139412999389026e-02  2.4916802300222002e-02  2.4613700862213567e-02  2.4232447590880148e-02  2.3771124260215003e-02  2.3227081918851911e-02  2.2614867936903427e-02  2.1917569587177502e-02  2.1154342088975764e-02  2.0308385425715652e-02  1.9398730475574291e-02  1.8416965469405116e-02  1.7357291415085040e-02  1.6242839597669798e-02  1.5051938834950391e-02  1.3804718377169064e-02  1.2494647750892393e-02  1.1122869743524463e-02  9.6901905407264337e-03  8.2038175792808008e-03  6.6661519830594771e-03  5.0690631696960146e-03  3.4377501029438421e-03  1.7471779202415834e-03  0.0000000000000000e+00  0.0000000000000000e+00  0.0000000000000000e+00  0.0000000000000000e+00  0.0000000000000000e+00  0.0000000000000000e+00  0.0000000000000000e+00  0.0000000000000000e+00  0.0000000000000000e+00  1.9902075258140736e-03  3.8318120230469506e-03  5.6492793945166616e-03  7.4197650517442921e-03  9.1465678820999204e-03  1.0830555698581795e-02  1.2472327546782796e-02  1.4071480910036830e-02  1.5626903685613158e-02  1.7138425087141185e-02  1.8604025311822110e-02  2.0023420716794652e-02  2.1393808094188532e-02  2.2714117070611099e-02  2.3981613715942145e-02  2.5193654371871481e-02  2.6349499915743545e-02  2.7442320736014308e-02  2.8469017459326978e-02  2.9424839598574577e-02  3.0305062362813717e-02  3.1102282149897936e-02  3.1812733193723318e-02  3.2427818632035740e-02  3.2935596761499035e-02  3.3333112353004346e-02  3.3608195101389599e-02  3.3747943055156035e-02  3.3743575557827643e-02  3.3585592125823953e-02  3.3260137986141088e-02  3.2754279380306804e-02  3.2074334678463857e-02  3.1197541570645464e-02  3.0096962978131001e-02  2.8805055076207824e-02  2.7284082912379989e-02  2.5547247951854386e-02  2.3583194189303110e-02  2.1406707783053616e-02  1.9010047200326667e-02  1.6403779308568598e-02  1.3604938664056751e-02  1.0621342580757399e-02  7.4696937674112555e-03  4.1689446221062207e-03  7.3577724225381462e-04  -2.8087362166998101e-03  -6.4402190339859135e-03  -1.0135637785262467e-02  -1.3876089976563080e-02  -1.7641300101018543e-02  -2.1412163894617722e-02  -2.5174306039579038e-02  -2.8914657370726814e-02  -3.2623458016021609e-02  -3.6297074889624192e-02  -3.9936018207496898e-02  -4.3544198810733542e-02  -4.7130988818623508e-02  -5.0713796398890454e-02  -5.4314612294847978e-02  -5.7962228758402810e-02  -6.1693931620602355e-02  -6.5555555254043579e-02  -6.9601478662735167e-02  -7.3893098401232385e-02  -7.8513799207428070e-02  -8.3538910057313717e-02  -8.9071513211499795e-02  -9.5215594822700936e-02  -1.0206457661652447e-01  -1.0969285036883411e-01  -1.1811371003158305e-01  -1.2718245902318456e-01  -1.3674008757475195e-01  -1.4635704918735717e-01  -1.5562059791301361e-01  -1.6408623198375874e-01  -1.7153262831759766e-01  -1.7737574887427326e-01  -1.8170487358816290e-01  -1.8440526489990344e-01  -1.8588995792591742e-01  -1.8603177452635755e-01  -1.8493520289227980e-01  -1.8294335702913972e-01  -1.8014754197017893e-01  -1.7660531433995033e-01  -1.7252222046761598e-01  -1.6793691900670177e-01  -1.6302521055076075e-01  -1.5781366774326205e-01  -1.5232532836599844e-01  -1.4667847996342520e-01  -1.4088649015745397e-01  -1.3496159803627475e-01  -1.2894126502360831e-01  -1.2285908985565674e-01  -1.1672833400955926e-01  -1.1055510175267140e-01  -1.0435666621012619e-01  -9.8135692368731833e-02  -9.1910489437238133e-02  -8.5677805321911188e-02  -7.9446302373683553e-02  -7.3219650810491838e-02  -6.6999575008473491e-02  -6.0790128310247125e-02  -5.4592579124329667e-02  -4.8408008499828743e-02  -4.2238098256518815e-02  -3.6083867576890728e-02  -2.9945993613527504e-02  -2.3825030593269247e-02  -1.7721897672358905e-02  -1.1636433548284969e-02  -5.5691471454275962e-03  4.7960336521284824e-04  6.5098134634398730e-03  1.2521134978407303e-02  1.8513162874740387e-02  1.8509847870345392e-02  1.8501751111744454e-02  1.8489040625173574e-02  1.8473601241880980e-02  1.8458145891314049e-02  1.8445408753162834e-02  1.8437257954629409e-02  1.8433954814071528e-02  4.7504046715983503e-02  -6.1890098409646939e-02  -1.0695684061340158e+00  -5.9387687745597129e-01  -4.7466578270573223e-01  -4.0109722867958864e-01  -3.4969171703715912e-01  -3.0999876176773267e-01  -2.7790931308761413e-01  -2.5687900404991887e-01  -2.3715783205687085e-01  -2.2034676500398723e-01  -2.0449127290798519e-01  -1.8941404032693498e-01  -1.7479487654886963e-01  8.3552871744110815e-02  9.2638846788395415e-02  7.7234649701284463e-02  5.3058235921964098e-02  3.1969862542376638e-02  1.6874927706508662e-02  -6.3560882244060279e-01  -9.1197298798114723e-02  8.3881529290724070e-03  4.8656071092971730e-03  5.0525556470056429e-03  -1.4814712435460316e-02  7.6803622704703731e-03  -1.6038070345358216e-01  1.1171845473976962e-02  -1.4554863340879748e-01  1.5318621456773953e-02  -7.1583730290167610e-02  -5.6085046124188853e-02  1.9249619591859064e-02  -4.1813475125422175e-02  -1.3073598916484300e-01  -2.3414541608113227e-02  2.2176741168370061e-02  -1.1520027224735743e-01  1.8601419254513675e-02  2.4338476106130033e-02  -4.8297770383789905e-03  -1.1317844143924111e-01  -9.9366813859503161e-02  2.5311075494009239e-02  1.4744633291992064e-02  -8.1582329504158987e-02  2.2130532677142038e-02  2.5025234628178114e-02  2.7890423932548043e-02  -6.4130912441004037e-02  -1.3976726350743704e-01  2.3530378436444656e-02  3.1462489875723205e-02  -1.6657754933704222e-01  3.3266728999113905e-02  2.0732398957080091e-02  -1.8235259051531769e-01  -4.3829604314745446e-02  -2.9774014243785590e-02  5.5837171493746283e-03  1.7874944722707772e-02  1.4274374527637164e-02  3.3510505520572900e-02  -1.8518329101291470e-01  3.1931071354205295e-02  -7.2252750038976388e-01  -1.7468447199182741e-01  2.9734282392422238e-02  -1.2296249703890328e-02  -1.6037461576189985e-01  1.0396128610165221e-02  2.5694646424056375e-02  -1.4363698973193506e-01  -1.1961908087048932e-01  2.1976914999409344e-02  -8.8787102779243260e-02  1.7804859243692836e-02  -7.0051144681078759e-02  -5.1392896530971351e-02  1.3220067323609936e-02  -1.9879767940566329e-02  1.6474900460675551e-03  1.2900142447769209e-02  -7.5056474023410546e-04  8.3754653441275584e-03  5.7645090907537016e-03  -2.0937164230047656e-03  -3.2961347386838605e-02  6.6933685295496341e-03  -8.0587137620248897e-02  -1.8129559780936894e-01  -1.3239016314172891e-01  -1.0776422867041927e-01  -1.8343660573454464e-03  -1.6242125569121382e-02  -3.4383198465852027e-02  -4.8853902105711437e-02  -6.3471306810014130e-02  -5.3808354283445978e-02  3.2973360086638703e-02  -7.3113049570170438e-02  -3.9197046794746462e-02  2.7850508880159025e-02  2.2280813957387315e-02  -9.1036513782009804e-02  2.4382347506534965e-02  2.5332429692501962e-02  -1.0690818335656364e-01  2.4976260375156076e-02  2.3394883766332506e-02  2.0645047996654134e-02  1.7406488035617094e-02  1.1973824028093773e-02  -1.2305134048715187e-01  1.3226221002885561e-02  9.3632707385409315e-03  -1.3826873833687153e-01  6.1577151259466396e-03  4.5813995395846416e-03  6.0515353877941417e-03  1.3587469098376307e-03  -1.5345723108826617e-01  -1.6703948286021197e-01  1.3212861020321966e-02  -1.8168993346571893e-01  -1.9687152327246915e-01  -2.1228845125197296e-01  -2.2890556195946343e-01  -2.4679642525869616e-01  -2.6653478430398980e-01  6.8226983022852558e-02  -2.9609035707880788e-01  -3.3208912768690768e-01  -3.7845952596386628e-01  9.1963988319358717e-02  -4.4210595984688095e-01  6.5658929500253135e-02  8.6623610074487337e-02  4.2744404407653737e-02  2.3662549312970186e-02  -5.3782409383961305e-01  -1.5540572088594613e+00  1.7330477891829494e-03  1.2766307793457624e-02  4.6567174789891612e-03  2.8786268415390264e-03  1.3450362114424314e-02  1.3729752060869845e-03  9.4178289300526734e-03  4.0386428188407958e-03  4.6411804409777751e-03  7.2036566381184376e-03  4.1141886322698063e-03  6.8808471387732306e-03  3.6921605788078076e-03  7.4332108459981413e-03  4.2292424298511679e-03  8.5538748629371223e-03  5.3246036891206380e-03  9.5340779167595088e-03  5.2183183436777915e-03  9.3800901192564873e-03  2.1352421897211705e-03  6.3676497620906661e-03  -4.4384400595642928e-03  -1.0476658322662537e-04  -1.4457217023197055e-02  -9.9135211007753826e-03  -2.6694457837188965e-02  -2.1031196442511446e-02  -3.3939476031510415e-02  -2.2265472315143933e-03  -1.6199827689384213e-02  -4.5844838668155655e-02  -5.5403749889118968e-02  1.0418684548800707e-03  -1.2245110406042771e-02  5.9014420109917533e-03  -1.0052056211128868e-02  9.4970922325831614e-03  -9.7291801959933696e-03  1.1748611327316069e-02  -7.4811106638435721e-03  1.3209085951952680e-02  -1.0473057545566442e-02  1.1731493231761292e-02  -9.0873485423410699e-03  1.0817711311184017e-02  -1.0785882609044735e-02  8.6549331088319279e-03  -1.2590972574834623e-02  5.9129058875119107e-03  -1.4926495586899404e-02  2.7958718040117219e-03  -1.6621348394878221e-02  -3.7980870270894749e-04  -1.8686239302634623e-02  -3.5118441268412459e-03  -2.0098429749948535e-02  -7.3555287514767472e-03  -2.1400663747990590e-02  -7.8538523300502056e-03  -6.5785925283313951e-02  -7.9412330958871596e-02  -2.2740276421526106e-02  -1.1320019709786430e-02  -2.2749220405381645e-02  -1.2513646608109948e-02  -2.3284991623961519e-02  -1.3728729844368513e-02  -2.3007074441484046e-02  -1.4364238411816943e-02  -2.9339323409660521e-02  -2.2284981724783055e-02  -1.4583529053253049e-02  -2.2264681968935267e-02  -1.4611174772495225e-02  -2.0038320501625316e-02  -1.3859171637005976e-02  -8.5015398036840009e-02  -1.0406316485696798e-01  -7.9135307596220979e-04  -1.8619522709194210e-02  -1.2980247194197469e-02  -1.6811509662074061e-02  -1.1814016763474610e-02  -1.4886697956679214e-02  -1.0417411675597824e-02  -7.4198005717014431e-02  -1.2773088133190997e-02  -8.7928822240030957e-03  -2.7933487328813806e-02  -1.0537521580280585e-02  -7.0096174151471945e-03  -8.2017889244243008e-03  -5.0581935005784371e-03  -5.7552555405437685e-03  -3.0327819407059034e-03  1.4464003078324857e-02  -2.8704794478399184e-02  -3.2924188574743624e-03  -8.9201266348888750e-04  -1.0239190176831252e-01  -1.2145790866914957e-01  -8.7921354804429266e-02  -3.1263218117962462e-02  -7.8950097851193917e-04  1.3408017159932516e-03  1.7160088568627455e-03  3.5908097126914900e-03  4.2174148409027260e-03  5.7706780704580522e-03  -7.4451239456413704e-03  1.5101964635393769e-03  -5.8831467025700383e-03  -5.5958285301449294e-03  6.6765014240359804e-03  7.9506047735128146e-03  7.0626396362973064e-03  8.9389182030940578e-03  1.0088757634635183e-02  1.0785699899001104e-02  1.2171093432646492e-02  1.2644005742241645e-02  1.4194895683135707e-02  1.4489881313230426e-02  1.6135870713133698e-02  1.6246021613569757e-02  1.7980324843168454e-02  1.7921944244100624e-02  1.9743937260043178e-02  1.9516582464363552e-02  2.1378606250736985e-02  2.0962623948519537e-02  2.2883292806147256e-02  2.2353399517004598e-02  2.4285806761121635e-02  2.3630873601900242e-02  2.5594639150562676e-02  2.4808152288076514e-02  -3.3128855425342354e-04  -3.3110212272876041e-02  2.6749285364693898e-02  2.5864385172824602e-02  2.7730394016160970e-02  2.6800486154856903e-02  2.8699963287466025e-02  2.0487645514804732e-02  2.8606847592467902e-02  2.7616580336355959e-02  3.0825421843665862e-02  -3.0738275423192914e-02  -1.1461355246119365e-01  -1.3434905413697232e-01  -1.5096069455236252e-01  -1.6062374300110863e-01  -1.8633049060207080e-01  -1.9034358600806361e-01  -2.3167106456568023e-01  -2.2393357981508405e-01  -2.6803798849189930e-01  -2.5439946035073352e-01  -3.0664141845803938e-01  -2.8158574106610151e-01  -3.3180907976717899e-01  -3.0161202628117911e-01  -3.4819563011797716e-01  -3.1536373206576462e-01  -3.5533342938294182e-01  -3.2222031413383895e-01  -3.5568200400497368e-01  -3.2363769080491572e-01  -3.5109299130146304e-01  -3.2134187110241197e-01  -3.4383928502697930e-01  -3.1681993000838915e-01  -3.3508480632177345e-01  -3.1099837894198729e-01  -3.2447633920989200e-01  -3.0260229669467043e-01  -2.8756006315369004e-01  -2.8310369612480940e-01  -2.9591737599586226e-01  -2.7830317914812946e-01  -2.9031951102394044e-01  -2.7352110355127746e-01  -2.8275785723725583e-01  -2.6794190416063052e-01  -2.6664770135093174e-01  -2.6558783726410418e-01  -2.9395125845235592e-01  -2.7568667644636830e-01  -2.6231044638011647e-01  -2.5300839602045255e-01  -2.4902814603426918e-01  -2.5669818307236397e-01  -2.4513620007783060e-01  -2.5101556157921484e-01  -2.4072024462251496e-01  -2.4535967479696469e-01  -2.3577624805488684e-01  -2.3646869388925787e-01  -2.1683324878780180e-01  -3.6749415238326150e-01  -2.3982781431203792e-01  -2.3100211062366235e-01  -2.2631247619334585e-01  -2.2220724329414573e-01  -2.2627632795697744e-01  -2.1833880789990204e-01  -2.2141678548391758e-01  -2.1418804033643682e-01  -3.9778616845859244e-01  -2.1385024612102660e-01  -2.1658750694026180e-01  -2.1006239120607609e-01  -3.8441925104847274e-01  -2.1191944382670938e-01  -2.0570129733335635e-01  -2.0378647654957682e-01  -1.9949560823038703e-01  -2.0127606614057666e-01  -1.9541048546269060e-01  -1.9323080832051259e-01  -1.8958494042421159e-01  -1.9129822535232219e-01  -1.8581997188473792e-01  -1.8710168463355198e-01  -1.8185709571652625e-01  -1.8045626337745482e-01  -1.7678431498483638e-01  -1.7777249217068869e-01  -1.7296892281361972e-01  -1.7364637709187894e-01  -1.6904020448521911e-01  -1.6317276128915428e-01  -3.0744048507266158e-01  -3.5897100150797667e-01  -1.6954007384595590e-01  -1.6506817331914703e-01  -1.6448753434014449e-01  -1.6053242249675004e-01  -1.6087075058228351e-01  -1.5651599228110294e-01  -1.5993091548701818e-01  2.9392875502503170e-02  2.8325429053213294e-02  3.0022020824142962e-02  2.8910001136059092e-02  3.0515465704702829e-02  2.9373292719894015e-02  -2.6207352725310123e-01  -2.3773565001590675e-02  1.2153371810831373e-03  -1.5659801855340721e-01  -1.5244092289215855e-01  -2.8901453273445454e-01  1.6026323601794682e-02  2.2789999622577058e-02  8.0068744835596183e-03  3.0882534205981169e-02  2.9717472170973588e-02  2.8088014805927836e-02  2.8432400379775773e-02  2.9947785373421017e-02  2.8661326983108824e-02  3.0055388471118834e-02  2.8780357773037019e-02  3.0065383732698552e-02  2.8813590517739525e-02  2.9966902582901050e-02  2.8740220066998362e-02  2.9776860767100653e-02  2.8581400140425820e-02  2.9505152292819380e-02  2.8318636495662446e-02  2.9131922813122036e-02  2.7967103219351988e-02  2.8663054489133519e-02  2.7520003493112812e-02  2.8096650873291704e-02  2.6987215245314371e-02  2.7459477566287079e-02  2.6373641838793770e-02  2.6751255280978527e-02  2.5674907572376091e-02  2.5959563420469348e-02  2.4905343038866098e-02  2.5057557585470031e-02  2.4047664323303474e-02  2.4163269639895374e-02  2.3132984570270642e-02  2.6399790975778898e-02  -1.7545258473661604e-01  -2.2931288192810761e-01  -1.5222652757997807e-01  -1.4819634545929192e-01  -1.4834017491862705e-01  -1.4404919609207306e-01  -1.4421680479653606e-01  -1.3991622953944191e-01  -1.3972640126718952e-01  -1.3564698666004704e-01  -1.3521348023049568e-01  -1.3123381564581210e-01  -1.3157644000004901e-01  -1.2722576280521361e-01  -1.2692421708882029e-01  -1.2286173351273569e-01  -1.2247776577796861e-01  -1.184317953813