<?xml version="1.0"?>
<VTKFile type="UnstructuredGrid"  version="0.1"  >
<UnstructuredGrid>
<Piece  NumberOfPoints="2886" NumberOfCells="5412">
<Points>
<DataArray  type="Float64"  NumberOfComponents="3"  format="ascii">0 0.1 0  0.98 0.1 0  1 0.1 0  1 0 0  1.5 0 0  3 0 0  3 0.3 0  0 0.3 0  0.01975375321854102 0.1 0  0.03918897458218897 0.1 0  0.05831079002627837 0.1 0  0.07712425666319796 0.1 0  0.0956343475259058 0.1 0  0.1138459546796227 0.1 0  0.1317638870668193 0.1 0  0.1493928840275937 0.1 0  0.1667376092280033 0.1 0  0.1838026357802664 0.1 0  0.2005924801287244 0.1 0  0.2171115811543574 0.1 0  0.2333643037107681 0.1 0  0.2493549444060462 0.1 0  0.2650877293306821 0.1 0  0.2805668058011438 0.1 0  0.2957962848620976 0.1 0  0.3107801766802674 0.1 0  0.3255224447361181 0.1 0  0.3400269848175519 0.1 0  0.3542976327080778 0.1 0  0.3683381609158136 0.1 0  0.3821522744564845 0.1 0  0.3957436316838916 0.1 0  0.4091158196437086 0.1 0  0.4222723742184605 0.1 0  0.4352167733293057 0.1 0  0.4479524348643424 0.1 0  0.4604827295467524 0.1 0  0.4728109659990664 0.1 0  0.4849404035409129 0.1 0  0.4968742471455402 0.1 0  0.508615651843175 0.1 0  0.520167721130924 0.1 0  0.5315335063628542 0.1 0  0.5427160117228604 0.1 0  0.5537181940261912 0.1 0  0.564542961924507 0.1 0  0.575193173270606 0.1 0  0.5856716438765114 0.1 0  0.5959811458006617 0.1 0  0.6061243988680743 0.1 0  0.6161040893285659 0.1 0  0.6259228503970299 0.1 0  0.6355832809287655 0.1 0  0.6450879281079505 0.1 0  0.6544393102991295 0.1 0  0.663639896558931 0.1 0  0.6726921201956305 0.1 0  0.6815983691630338 0.1 0  0.6903610031396646 0.1 0  0.6989823343332418 0.1 0  0.7074646404270378 0.1 0  0.7158101645005117 0.1 0  0.7240211149852543 0.1 0  0.7320996585612525 0.1 0  0.7400479319727645 0.1 0  0.7478680336617921 0.1 0  0.755562036504958 0.1 0  0.7631319665092091 0.1 0  0.7705798279317605 0.1 0  0.777907588066146 0.1 0  0.7851171851013118 0.1 0  0.7922105226004981 0.1 0  0.7991894774550319 0.1 0  0.8060558928136696 0.1 0  0.812811583201334 0.1 0  0.8194583352091183 0.1 0  0.8259979035038147 0.1 0  0.8324320194413813 0.1 0  0.8387623808293405 0.1 0  0.8449906627004957 0.1 0  0.8511185094880469 0.1 0  0.8571475426008311 0.1 0  0.8630793533568246 0.1 0  0.8689155114558531 0.1 0  0.8746575581239063 0.1 0  0.8803070109173519 0.1 0  0.885865363938836 0.1 0  0.8913340851680313 0.1 0  0.8967146206523592 0.1 0  0.9020083930695622 0.1 0  0.9072167995950768 0.1 0  0.9123412183131177 0.1 0  0.9173830029719022 0.1 0  0.9223434865647732 0.1 0  0.9272239785872722 0.1 0  0.9320257720706087 0.1 0  0.9367501330378739 0.1 0  0.9413983102716995 0.1 0  0.9459715351562933 0.1 0  0.9504710127113115 0.1 0  0.9548979346500661 0.1 0  0.9592534708344373 0.1 0  0.9635387708980176 0.1 0  0.9677549682252325 0.1 0  0.971903177251235 0.1 0  0.9759844952956497 0.1 0  0.9840000000000086 0.1 0  0.987999999999974 0.1 0  0.9919999999999393 0.1 0  0.9959999999999913 0.1 0  1 0.09591793123533533 0  1 0.09133596463859224 0  1 0.08619288104391448 0  1 0.08041996484521211 0  1 0.07394008421771697 0  1 0.06666666567302955 0  1 0.05850252932209174 0  1 0.04933859630113544 0  1 0.03905242821848202 0  1 0.02750659386753798 0  1 0.01454683679239736 0  1.015625 0 0  1.03125 0 0  1.046875 0 0  1.0625 0 0  1.078125 0 0  1.09375 0 0  1.109375 0 0  1.125 0 0  1.140625 0 0  1.15625 0 0  1.171875 0 0  1.1875 0 0  1.203125 0 0  1.21875 0 0  1.234375 0 0  1.25 0 0  1.265625 0 0  1.28125 0 0  1.296875 0 0  1.3125 0 0  1.328125 0 0  1.34375 0 0  1.359375 0 0  1.375 0 0  1.390625 0 0  1.40625 0 0  1.421875 0 0  1.4375 0 0  1.453125 0 0  1.46875 0 0  1.484375 0 0  1.515920751924515 0 0  1.531989369316721 0 0  1.54820720925872 0 0  1.564575665560501 0 0  1.581096138674279 0 0  1.597770029901263 0 0  1.614598783332311 0 0  1.631583831055205 0 0  1.64872661129721 0 0  1.666028606716533 0 0  1.683491276608443 0 0  1.701116134125304 0 0  1.718904673324128 0 0  1.736858414799339 0 0  1.754978895814663 0 0  1.773267661782904 0 0  1.791726281103402 0 0  1.810356325314689 0 0  1.8291593848892 0 0  1.848137076690385 0 0  1.867291007717254 0 0  1.886622833871288 0 0  1.90613418642363 0 0  1.925826753299799 0 0  1.945702199101513 0 0  1.96576223584749 0 0  1.986008569283268 0 0  2.006442931928877 0 0  2.02706707547783 0 0  2.047882750887917 0 0  2.06889175187935 0 0  2.090095860038271 0 0  2.111496891648636 0 0  2.133096679109554 0 0  2.154897066851056 0 0  2.176899916687499 0 0  2.199107102752146 0 0  2.22152053937028 0 0  2.244142122958061 0 0  2.266973806444078 0 0  2.290017523268154 0 0  2.313275249499252 0 0  2.336748971745516 0 0  2.360440702338606 0 0  2.384352453384031 0 0  2.408486280477412 0 0  2.432844240041185 0 0  2.457428414757088 0 0  2.482240901796653 0 0  2.507283830121838 0 0  2.532559332080812 0 0  2.558069568787417 0 0  2.583816724966441 0 0  2.60980299606584 0 0  2.636030600971886 0 0  2.662501790984011 0 0  2.689218818279327 0 0  2.716183964547616 0 0  2.743399548861297 0 0  2.77086788244719 0 0  2.798591312896326 0 0  2.826572223178268 0 0  2.854812990138617 0 0  2.883316031690714 0 0  2.912083780657189 0 0  2.941118704633482 0 0  2.970423276998917 0 0  3 0.02999999999994495 0  3 0.05999999999987042 0  3 0.089999999999783 0  3 0.119999999999701 0  3 0.149999999999619 0  3 0.179999999999692 0  3 0.2099999999997737 0  3 0.2399999999998511 0  3 0.2699999999999185 0  2.970138294777171 0.3 0  2.940375666438236 0.3 0  2.910711782853056 0.3 0  2.881146331305122 0.3 0  2.851678975030285 0.3 0  2.822309388626621 0.3 0  2.793037250095074 0.3 0  2.76386223529133 0.3 0  2.734784017903872 0.3 0  2.705802289276642 0.3 0  2.676916713794697 0.3 0  2.648126987654635 0.3 0  2.619432780406184 0.3 0  2.590833779385199 0.3 0  2.562329669847737 0.3 0  2.533920134950189 0.3 0  2.505604855727852 0.3 0  2.477383539822502 0.3 0  2.449255847639465 0.3 0  2.421221492569094 0.3 0  2.393280152486815 0.3 0  2.36543151914496 0.3 0  2.337675285481809 0.3 0  2.310011142385583 0.3 0  2.282438797441587 0.3 0  2.254957931061538 0.3 0  2.227568248063605 0.3 0  2.200269436651085 0.3 0  2.173061204949961 0.3 0  2.145943251515011 0.3 0  2.118915272469994 0.3 0  2.091976978084957 0.3 0  2.065128060700849 0.3 0  2.038368218849433 0.3 0  2.01169717777258 0.3 0  1.985114624111908 0.3 0  1.958620267850966 0.3 0  1.93221382054972 0.3 0  1.905894991850698 0.3 0  1.879663489459713 0.3 0  1.853519019126419 0.3 0  1.827461291053897 0.3 0  1.801490031354372 0.3 0  1.775604937580312 0.3 0  1.74980572560258 0.3 0  1.724092118631866 0.3 0  1.698463829173586 0.3 0  1.672920575782554 0.3 0  1.647462076974085 0.3 0  1.622088043536933 0.3 0  1.5967981978949 0.3 0  1.571592267767068 0.3 0  1.546469970305736 0.3 0  1.521431023814044 0.3 0  1.496475156230927 0.3 0  1.471602093687753 0.3 0  1.446811560490646 0.3 0  1.422103279101731 0.3 0  1.397476971708191 0.3 0  1.37293238939876 0.3 0  1.348469231419202 0.3 0  1.324087248732772 0.3 0  1.299786165921677 0.3 0  1.275565710847046 0.3 0  1.251425617644257 0.3 0  1.227365618676339 0.3 0  1.203385446174014 0.3 0  1.179484853067473 0.3 0  1.155663548773374 0.3 0  1.131921292279077 0.3 0  1.108257802159295 0.3 0  1.084672829009693 0.3 0  1.061166115303374 0.3 0  1.037737392995421 0.3 0  1.01438640299116 0.3 0  0.991112899770314 0.3 0  0.9679166155523955 0.3 0  0.944797284182564 0.3 0  0.921754678526042 0.3 0  0.8987885143602501 0.3 0  0.8758985548820624 0.3 0  0.8530845484099929 0.3 0  0.8303462351786988 0.3 0  0.8076833651172373 0.3 0  0.7850956864865304 0.3 0  0.7625829601354557 0.3 0  0.7401449314598274 0.3 0  0.717781337993959 0.3 0  0.6954919649675473 0.3 0  0.6732765357561226 0.3 0  0.6511348120768439 0.3 0  0.6290665642016573 0.3 0  0.6070715355430467 0.3 0  0.5851494825775325 0.3 0  0.5633001690203812 0.3 0  0.5415233562273221 0.3 0  0.5198187909431873 0.3 0  0.4981862401387795 0.3 0  0.4766254686134248 0.3 0  0.4551362360485234 0.3 0  0.4337182975262159 0.3 0  0.4123714223228037 0.3 0  0.3910953802377493 0.3 0  0.3698899313205595 0.3 0  0.3487548463710963 0.3 0  0.3276898864081783 0.3 0  0.3066948129116018 0.3 0  0.2857694003037476 0.3 0  0.2649134227095047 0.3 0  0.2441266417321288 0.3 0  0.2234088223399122 0.3 0  0.2027597568977288 0.3 0  0.1821792020676698 0.3 0  0.1616669305402443 0.3 0  0.1412227158799362 0.3 0  0.12084633013886 0.3 0  0.1005375673448281 0.3 0  0.08029618164595353 0.3 0  0.06012194778526769 0.3 0  0.04001466495039718 0.3 0  0.01997408913631205 0.3 0  0 0.2800000000000553 0  0 0.2600000000001105 0  0 0.2400000000001658 0  0 0.2200000000002211 0  0 0.2000000000002764 0  0 0.1800000000002244 0  0 0.1600000000001691 0  0 0.140000000000115 0  0 0.1200000000000564 0  1.13346801534201 0.01255848438672509 0  1.003577645172735 0.09351054173913405 0  0.9777559943702486 0.1034978156913738 0  0.9524533750752109 0.1040889939962738 0  0.9296242411226409 0.1041520033606139 0  0.9046110503652111 0.104409422380137 0  0.8777709649694228 0.1053360318797398 0  0.8483859145648608 0.1061007868330701 0  0.8162363822948977 0.1052777104363292 0  0.7893110024210437 0.1060761643971561 0  0.7587949382612539 0.1067265405088633 0  0.7280603867732535 0.1069398153264939 0  0.6947001989413015 0.1075609887579097 0  0.6590363283767549 0.1076715322596598 0  0.6210028614493155 0.1072970410408442 0  1.1953125 0.01353164693413185 0  1.258193991486058 0.01269648635163345 0  1.3201967268638 0.01407907077719561 0  1.383538555392096 0.01434101079053473 0  1.445312500000001 0.01303671693628424 0  1.508925448095738 0.01398525724792267 0  0.9939176689634008 0.1034638089837981 0  1.120967497222226 0.2796788492172345 0  1.572835902117391 0.01424132418857359 0  1.637573277451887 0.01212536916586023 0  1.709730776795181 0.01466855431023635 0  1.005631976950563 0.07074019818158772 0  1.784944696816299 0.01454708406461822 0  0.5805605730631225 0.1101465090472147 0  1.855621181165637 0.01550931272897607 0  0.5366111276616774 0.1096761308243709 0  1.935200147913231 0.01760344159641829 0  1.214922267975168 0.2799787705802257 0  1.31178773425331 0.2792
[...]
<PointData  Scalars="pressure"> 
<DataArray  type="Float64"  Name="pressure"  format="ascii">1.1405386472457653e-02  -1.0863471697871654e+00  1.8414925151398463e-03  4.8545415875498200e-03  1.3690682348574268e-02  0.0000000000000000e+00  0.0000000000000000e+00  1.1486362573700776e-02  5.4793028670209465e-03  -3.5201186639918840e-04  -6.0904213578302944e-03  -1.1737527822031947e-02  -1.7295065189866472e-02  -2.2764630879933256e-02  -2.8147577425238466e-02  -3.3445872588109160e-02  -3.8660875963927865e-02  -4.3794145469305892e-02  -4.8847597876773244e-02  -5.3822765232146991e-02  -5.8721012854892278e-02  -6.3544455854847914e-02  -6.8294699656302388e-02  -7.2972659490674552e-02  -7.7581386133751012e-02  -8.2121970107184777e-02  -8.6596193276367639e-02  -9.1006695268794152e-02  -9.5354777987170597e-02  -9.9641554348900846e-02  -1.0387080697881672e-01  -1.0804344688235486e-01  -1.1216292882025276e-01  -1.1623074265269569e-01  -1.2024795640388519e-01  -1.2421835807550137e-01  -1.2814487496960997e-01  -1.3202914529759555e-01  -1.3587390342219213e-01  -1.3968276492041706e-01  -1.4345725144893828e-01  -1.4720178472619186e-01  -1.5091856469626569e-01  -1.5461173144624929e-01  -1.5828439973258701e-01  -1.6193535255036504e-01  -1.6557670553952225e-01  -1.6920685620320391e-01  -1.7283007626276720e-01  -1.7645298289247296e-01  -1.8007907555580130e-01  -1.8370544341962233e-01  -1.8734841527619131e-01  -1.9100585925738647e-01  -1.9468353180221221e-01  -1.9838753238823945e-01  -2.0212256160477168e-01  -2.0589423803204138e-01  -2.0971003866588087e-01  -2.1357486485777766e-01  -2.1749411864441473e-01  -2.2147351062942333e-01  -2.2552700556187355e-01  -2.2965374073133207e-01  -2.3386486568827913e-01  -2.3816302140004936e-01  -2.4257075140047721e-01  -2.4709017195218794e-01  -2.5171898726994640e-01  -2.5647793677279612e-01  -2.6138630488403636e-01  -2.6643692003451291e-01  -2.7165831175404531e-01  -2.7706036851212229e-01  -2.8264501584727153e-01  -2.8843800021343657e-01  -2.9445487446206320e-01  -3.0071220117401376e-01  -3.0724392550046686e-01  -3.1405824993236853e-01  -3.2116742089355083e-01  -3.2858867117297907e-01  -3.3640537167716111e-01  -3.4460975901217683e-01  -3.5323227817178099e-01  -3.6233303689334240e-01  -3.7194409070671569e-01  -3.8212169990932687e-01  -3.9292119062657699e-01  -4.0444818823975937e-01  -4.1676532872845623e-01  -4.2994431908613584e-01  -4.4415075013219546e-01  -4.5952318155705763e-01  -4.7623754855347605e-01  -4.9453105232044392e-01  -5.1469432800498949e-01  -5.3710795281496582e-01  -5.6229797492818778e-01  -5.9099408870890890e-01  -6.2423105151650327e-01  -6.6345102556209801e-01  -7.1150459167930002e-01  -7.7258313944814627e-01  -8.5375627426794853e-01  -9.9417813234702213e-01  -2.2518113007062621e+00  -1.9682916598022302e+00  -1.3479129427813077e+00  -7.6777340937664040e-01  -1.6001904648377901e-01  -6.3142083053577991e-02  -4.5114569593223519e-02  -2.7934720251868200e-02  -1.7228286449108697e-02  -9.7853210325112711e-03  -4.3584389024028071e-03  1.1372004524425443e-06  3.3955402118231535e-03  5.5092041502658893e-03  5.6626721857794028e-03  3.8637769243861477e-03  4.1049395478525187e-03  6.3586808413945810e-03  1.0613316101235611e-02  1.6884646352858624e-02  2.4994593637416029e-02  3.4629853900786323e-02  4.5306419485309231e-02  5.6204863312105287e-02  6.6571201152091503e-02  7.5770250012431539e-02  8.3278618967895832e-02  8.8828154204283818e-02  9.2287134583488653e-02  9.3644556361019926e-02  9.3082751451162821e-02  9.0842883551294010e-02  8.7196173071498323e-02  8.2488922569053200e-02  7.6973649312188960e-02  7.0854874310360069e-02  6.4554375980861903e-02  5.8065898889511088e-02  5.1709802458379819e-02  4.5572306432503221e-02  3.9746370020598866e-02  3.4287616543839251e-02  2.9257471650437742e-02  2.4670442681396027e-02  2.0555780881959373e-02  1.6899595587790774e-02  1.0863265128286427e-02  8.4374486855117951e-03  6.4099255738051522e-03  4.7334955932326556e-03  3.3983642232162919e-03  2.4242039819238701e-03  1.6768132823553564e-03  1.2136524049818384e-03  1.0151796517245636e-03  1.0343199735403695e-03  1.2276763540537950e-03  1.5955769320809732e-03  2.1198678228151733e-03  2.7690231131695651e-03  3.5291214425851800e-03  4.3849721788410314e-03  5.3109569301013201e-03  6.3013594285110360e-03  7.3413709564462085e-03  8.4115094313562799e-03  9.5079639722169557e-03  1.0613863892683900e-02  1.1717323423953444e-02  1.2818167972950470e-02  1.3896243973156629e-02  1.4957735720992300e-02  1.5979603588049004e-02  1.6966514279559534e-02  1.7907950316335693e-02  1.8801658531319213e-02  1.9643853685939860e-02  2.0427297541350278e-02  2.1148856211045643e-02  2.1805113539252696e-02  2.2393570195341057e-02  2.2910961140356616e-02  2.3354960999430640e-02  2.3723723135469582e-02  2.4015065066066991e-02  2.4228443339492714e-02  2.4362908528707823e-02  2.4417294753673692e-02  2.4391257588390201e-02  2.4284620492221212e-02  2.4096227768323285e-02  2.3826461933167765e-02  2.3477864129726078e-02  2.3048432336984958e-02  2.2535721198501845e-02  2.1954403590158485e-02  2.1287596271089587e-02  2.0554804630908922e-02  1.9739001817979839e-02  1.8859885841214664e-02  1.7908793174254343e-02  1.6880210453816616e-02  1.5797649677697031e-02  1.4639114805060140e-02  1.3425538076526749e-02  1.2150220433976148e-02  1.0814686969923623e-02  9.4195839874075000e-03  7.9723996907653302e-03  6.4760701249024586e-03  4.9230337880858122e-03  3.3373802194105761e-03  1.6950777518859362e-03  0.0000000000000000e+00  0.0000000000000000e+00  0.0000000000000000e+00  0.0000000000000000e+00  0.0000000000000000e+00  0.0000000000000000e+00  0.0000000000000000e+00  0.0000000000000000e+00  0.0000000000000000e+00  1.9500936184503369e-03  3.7520311498199840e-03  5.5253125134546895e-03  7.2512029671150079e-03  8.9328063857363436e-03  1.0571058950338160e-02  1.2166603626778886e-02  1.3719289159285579e-02  1.5228406972176521e-02  1.6693890909433441e-02  1.8114068492857779e-02  1.9488766110065635e-02  2.0815475119464934e-02  2.2093318890694751e-02  2.3319829083217298e-02  2.4492326564114156e-02  2.5610246755072313e-02  2.6666994335002452e-02  2.7659526971715032e-02  2.8583088531862210e-02  2.9432941211487099e-02  3.0201653016350249e-02  3.0885360196231403e-02  3.1475110337630917e-02  3.1959051929291847e-02  3.2333669654793326e-02  3.2586340812889858e-02  3.2703938018265523e-02  3.2677044430354088e-02  3.2495478700116508e-02  3.2144756026315349e-02  3.1610842386995949e-02  3.0899668697595851e-02  2.9988179403101081e-02  2.8847304255382202e-02  2.7509411912414190e-02  2.5936202470605879e-02  2.4139997883380185e-02  2.2108882956591070e-02  1.9856996712495540e-02  1.7376917221269723e-02  1.4678112473570521e-02  1.1778375807375611e-02  8.6854285551617293e-03  5.4164748873507772e-03  1.9909782066061090e-03  -1.5736571102649627e-03  -5.2552486716106713e-03  -9.0292146670995360e-03  -1.2870214635525165e-02  -1.6758722439949799e-02  -2.0673201193820958e-02  -2.4593119088900977e-02  -2.8503097258751508e-02  -3.2388748354495012e-02  -3.6238978129431762e-02  -4.0049179178999313e-02  -4.3819761670942467e-02  -4.7552123755384847e-02  -5.1255360116948250e-02  -5.4946461687982846e-02  -5.8646168441878664e-02  -6.2382880109213994e-02  -6.6192843086032585e-02  -7.0121728931769073e-02  -7.4223371822699349e-02  -7.8559362448865924e-02  -8.3213309312027181e-02  -8.8261958861198475e-02  -9.3810171190309169e-02  -9.9965520152801482e-02  -1.0682601309078300e-01  -1.1447395611373479e-01  -1.2293064548301604e-01  -1.3205868264817627e-01  -1.4170887238372931e-01  -1.5145141550316976e-01  -1.6087204743633798e-01  -1.6951592496345769e-01  -1.7715247591261751e-01  -1.8318560079425444e-01  -1.8769549908796640e-01  -1.9055897305242553e-01  -1.9219158921532523e-01  -1.9246105336594702e-01  -1.9147149048138540e-01  -1.8957076945121559e-01  -1.8685094439161259e-01  -1.8337024249363118e-01  -1.7933784057166405e-01  -1.7479292386004630e-01  -1.6991481943848216e-01  -1.6473045381512824e-01  -1.5926333375957880e-01  -1.5363415838132613e-01  -1.4785650063419625e-01  -1.4194287557625662e-01  -1.3593149001014709e-01  -1.2985665248931230e-01  -1.2373184744760793e-01  -1.1756332946333480e-01  -1.1136870775981382e-01  -1.0515071560209328e-01  -9.8928005705967020e-02  -9.2697278798448510e-02  -8.6467356943238122e-02  -8.0241990141672548e-02  -7.4022932895045163e-02  -6.7814320159034713e-02  -6.1617442314931083e-02  -5.5433404567425106e-02  -4.9263921053148904e-02  -4.3110030601333234e-02  -3.6972424763313520e-02  -3.0851668916013500e-02  -2.4748699892873111e-02  -1.8663354616116859e-02  -1.2596152987893293e-02  -6.5474602836141198e-03  -5.1728249892258032e-04  5.4940250887791607e-03  1.1486049716913874e-02  1.1482683950452561e-02  1.1474464187000634e-02  1.1461561301495877e-02  1.1445888579208478e-02  1.1430199650018619e-02  1.1417269709159497e-02  1.1408995078911062e-02  1.1405641345355235e-02  5.0104111868244407e-02  -6.1199267710104303e-02  -1.1140842481020008e+00  -6.1173895924273813e-01  -4.8795862424671571e-01  -4.1209610395385721e-01  -3.5934853920210230e-01  -3.1878302166446598e-01  -2.8610615808507450e-01  -2.6475537223978340e-01  -2.4478403605517238e-01  -2.2780011668811986e-01  -2.1181575606556521e-01  -1.9664486527252187e-01  -1.8195885502600614e-01  8.4466275867643728e-02  9.0607461552822399e-02  7.3059582432536241e-02  4.8019200804238091e-02  2.6970603947899355e-02  1.2338904359692286e-02  -6.5868466631131828e-01  -9.5953782595652334e-02  4.4290451109607288e-03  1.4595130391960021e-03  2.1734301249781863e-03  -1.3207224033443947e-02  5.2432873074061224e-03  -1.6749823228276198e-01  9.0678680136918616e-03  -1.5263344023744113e-01  1.3516732126835370e-02  -7.6235288066850371e-02  -6.0464452200491868e-02  1.7709189658890397e-02  -4.5763208575294180e-02  -1.3779942599324910e-01  -2.6674211046289104e-02  2.0837840143870173e-02  -1.2224959848494432e-01  2.1064877732070698e-02  2.3189160479610397e-02  -7.3540370270320570e-03  -1.1798587879309741e-01  -1.0640733518331684e-01  2.4326469242883196e-02  1.2962027723099897e-02  -8.8617116103898289e-02  2.0609289318253291e-02  2.4188333744744103e-02  2.6567739081746474e-02  -7.1162563983462337e-02  -1.4478454838548582e-01  2.2821477157229254e-02  3.0268987342170917e-02  -1.7208342964726614e-01  3.2164476603941061e-02  2.0148434583263188e-02  -1.8841111690958826e-01  -5.0859325358853590e-02  -3.6803016368973249e-02  3.4614105694397703e-03  1.7383572422204410e-02  1.3883578357959610e-02  3.2477651768128842e-02  -1.9165632686251341e-01  3.0992277520704947e-02  -7.4644843440582720e-01  -1.8146844896388512e-01  2.8877073651318440e-02  -1.9324775341974285e-02  -1.6727641834683743e-01  1.0107825929605869e-02  2.4972702015685723e-02  -1.5059952894943962e-01  -1.2661955652769599e-01  2.1376011294541343e-02  -9.5805505269722868e-02  1.7336060993818007e-02  -7.7073969186222585e-02  -5.8418009800336693e-02  1.2889399228088995e-02  -2.6906503220490575e-02  1.6069569818951621e-03  5.8725377073082334e-03  1.1407207900580561e-03  8.1793721226835602e-03  5.6000789699480443e-03  -9.1207514240297331e-03  -3.1771406292699741e-02  8.8515736354373067e-03  -8.5308852449039810e-02  -1.8795840703779601e-01  -1.3937490562073895e-01  -1.1477394139716850e-01  -8.8627541232365742e-03  -1.9217890598328156e-02  -3.8065534913238622e-02  -5.3033383271201967e-02  -6.8007410971636428e-02  -6.0838854516330428e-02  3.1984643610565522e-02  -8.0146088142427838e-02  -4.6223020542984876e-02  2.7057309178323389e-02  2.1635170210119417e-02  -9.8073933309934261e-02  2.3614505384451766e-02  2.4422958544178586e-02  -1.1395235475387047e-01  2.3911864848062066e-02  2.2154062742208071e-02  1.9198499995971438e-02  1.5744165855268947e-02  7.7171198445199207e-03  -1.3010695472293432e-01  1.1279010961466062e-02  7.0996144160688180e-03  -1.4534192309540625e-01  3.5132089862339932e-03  1.4608298938127314e-03  2.3926706415046605e-03  1.3200217765764542e-03  -1.6055777701226231e-01  -1.7417636364837447e-01  6.1848062172635918e-03  -1.8888294844302542e-01  -2.0414534105218982e-01  -2.1967230542901967e-01  -2.3644247439215263e-01  -2.5453877039770340e-01  -2.7455169688658676e-01  7.0245518573636756e-02  -3.0460630480814360e-01  -3.4134004992031486e-01  -3.8883979074374297e-01  9.1417215553193015e-02  -4.5433206456016706e-01  6.0912972540769120e-02  8.3310005316336408e-02  3.7647714091796805e-02  1.8861995567463753e-02  -5.5341181353118851e-01  -1.6196439578159347e+00  1.6958400743286690e-03  5.7390852077970856e-03  4.5542984181010156e-03  4.8962556153809463e-03  6.4220664536973537e-03  1.3321645348350084e-03  2.3907271522408649e-03  6.1071644772928702e-03  6.7134450708565942e-03  9.3625329606893248e-03  6.1999016903951688e-03  9.0699787273424912e-03  5.8317427301784169e-03  9.7007469984880402e-03  6.4429516837931746e-03  1.0881757643126776e-02  7.5380904259375308e-03  1.1800103788812242e-02  7.2181350050159621e-03  1.1363664352350039e-02  3.6565639948788003e-03  7.8178666228141385e-03  -3.5900419843473597e-03  5.9853807759280547e-04  -1.4457433279145301e-02  -1.0116155569789956e-02  -2.7655323217946528e-02  -2.2197842290379848e-02  -3.4794285269532328e-02  -2.5438525926026597e-03  -1.7655351482341212e-02  -4.7593822051566044e-02  -5.7088441207334632e-02  3.0119942156749086e-04  -1.4048901272035400e-02  4.7763354744989311e-03  -1.2298796113223315e-02  7.9013328083961595e-03  -1.2461755772140428e-02  9.6460556874251990e-03  -1.0587273125889855e-02  1.0590005071734257e-02  -1.4093390109540412e-02  8.5641738079822085e-03  -1.2997945823990380e-02  7.2124450637818275e-03  -1.4995051293212786e-02  4.6696277019886824e-03  -1.7013515969923957e-02  1.6332871416569717e-03  -1.9496818567970010e-02  -1.6944552977075553e-03  -2.1265283303077913e-02  -5.0004382157722311e-03  -2.3349147755676137e-02  -8.1904506309157139e-03  -2.4732936512414552e-02  -1.2031136378600274e-02  -2.5968796367126974e-02  -1.2488871098861357e-02  -6.8292354635868566e-02  -8.1991624391439741e-02  -2.7213606152117677e-02  -1.5861131015280160e-02  -2.7111962878072930e-02  -1.6951414764948068e-02  -2.7519825788707090e-02  -1.8039209236816123e-02  -2.7107337535845790e-02  -1.8536661934648650e-02  -3.1803793958408183e-02  -2.6252476938579478e-02  -1.8610877758928297e-02  -2.6064573564628331e-02  -1.8483991222862959e-02  -2.3722629153261208e-02  -1.7587531578959512e-02  -8.8211881240912476e-02  -1.0742325203140816e-01  7.9917192649110725e-04  -2.2161663619064461e-02  -1.6559511093841423e-02  -2.0215644351289197e-02  -1.5246102851007609e-02  -1.8153602860397057e-02  -1.3704795535921238e-02  -7.6221421640805878e-02  -1.5904822247961886e-02  -1.1938427646291622e-02  -3.1548108128998290e-02  -1.3535247983130541e-02  -1.0016641988006284e-02  -1.1069442328183880e-02  -7.9315055177835818e-03  -8.4964480901289375e-03  -5.7758889874528424e-03  1.6364383542532068e-02  -3.3127369188071187e-02  -5.9098293267513848e-03  -3.5100553503071611e-03  -1.0617675896784913e-01  -1.2543451577776649e-01  -9.1658486108851994e-02  -3.5933542176901527e-02  -3.2864941203911654e-03  -1.1554433203098595e-03  -6.6330195150516278e-04  1.2111523841108055e-03  1.9503032907684657e-03  3.5009075025970748e-03  -1.1237427652463846e-02  -1.1247486373808483e-03  -9.2121301033946650e-03  -9.8553709961387622e-03  4.5159058527481496e-03  5.7848364628259917e-03  4.7737345909390043e-03  6.7516104630549710e-03  8.0208627661390117e-03  8.6936241131240679e-03  1.0194374809786515e-02  1.0643063231454275e-02  1.2305146129685009e-02  1.2577224299605954e-02  1.4327720195425279e-02  1.4413944158079480e-02  1.6247961588844163e-02  1.6165615317212327e-02  1.8083512764186051e-02  1.7830871902900568e-02  1.9783548600703440e-02  1.9340195240977572e-02  2.1349139032696394e-02  2.0792544433035527e-02  2.2808082806827955e-02  2.2127281305986776e-02  2.4171052802470321e-02  2.3358283691870825e-02  -4.9499748051008317e-03  -3.7629510427064673e-02  2.5374291656327104e-02  2.4464257283445350e-02  2.6399066674467245e-02  2.5447205284634108e-02  2.7712490637790445e-02  1.6049940891993027e-02  2.7316912103164052e-02  2.6307069619149508e-02  2.7481726553360418e-02  -3.4945398863902494e-02  -1.1882786005564901e-01  -1.3876173768620592e-01  -1.5537367984005079e-01  -1.6542320711901831e-01  -1.9145460130995345e-01  -1.9568042377763067e-01  -2.3777516258968856e-01  -2.2996995709454462e-01  -2.7502963545283016e-01  -2.6113227507376791e-01  -3.1460330778453560e-01  -2.8898539575575616e-01  -3.4045775999413569e-01  -3.0954014104545158e-01  -3.5731949864039131e-01  -3.2368198346498678e-01  -3.6469813647621002e-01  -3.3076805584390173e-01  -3.6511271797497186e-01  -3.3227644189607602e-01  -3.6046112440940153e-01  -3.2998314568199461e-01  -3.5307772981319613e-01  -3.2540938286437537e-01  -3.4415940030958614e-01  -3.1950558513103683e-01  -3.3334884123404390e-01  -3.1097151095451170e-01  -2.9554627359209268e-01  -2.9105219150423933e-01  -3.0419193189215554e-01  -2.8620777701127992e-01  -2.9852805179600322e-01  -2.8138353361632634e-01  -2.9085910422873612e-01  -2.7574582100217598e-01  -2.7379163289679243e-01  -2.7311621264143532e-01  -3.0190849726989616e-01  -2.8369281303496380e-01  -2.7005848539460214e-01  -2.6052814625014015e-01  -2.5652999111109337e-01  -2.6439337608684527e-01  -2.5262531067587002e-01  -2.5865880888488230e-01  -2.4818644389754951e-01  -2.5295266551684037e-01  -2.4320945185773893e-01  -2.4376104106853666e-01  -2.2251222944659152e-01  -3.7708273113193219e-01  -2.4737330469420954e-01  -2.3840841381852348e-01  -2.3359482353860314e-01  -2.2947903796714283e-01  -2.3365810745559010e-01  -2.2560544998003240e-01  -2.2877290968843317e-01  -2.2144416206627968e-01  -4.0830346980497628e-01  -2.2100468796843792e-01  -2.2391874167932313e-01  -2.1730857509226356e-01  -3.9466595886480388e-01  -2.1922740408495964e-01  -2.1293383747359831e-01  -2.1095080932184440e-01  -2.0665536822615574e-01  -2.0849623635032161e-01  -2.0256821834096153e-01  -2.0032096673658645e-01  -1.9668295037634403e-01  -1.9845311576352384e-01  -1.9292311418731350e-01  -1.9425236690646436e-01  -1.8896315593553908e-01  -1.8751211095045750e-01  -1.8384944117762558e-01  -1.8487946064074681e-01  -1.8004035324332404e-01  -1.8075207857077336e-01  -1.7611516073315461e-01  -1.6813971293614272e-01  -3.1601887017191682e-01  -3.6863990447340000e-01  -1.7664345131168860e-01  -1.7214507549428060e-01  -1.7153429159354328e-01  -1.6758480209360602e-01  -1.6794798385313939e-01  -1.6357256512124463e-01  -1.6695293212538859e-01  2.8142610990115932e-02  2.7057269591872924e-02  2.8807599823944905e-02  2.7680982197968790e-02  2.9334647085501486e-02  2.8181269520444186e-02  -2.6991391556586258e-01  -2.7304475020365530e-02  3.3266850307701328e-03  -1.6367468147717620e-01  -1.5949972778237761e-01  -2.9728958964332203e-01  1.4164446176886553e-02  2.1264075883763719e-02  5.6915349127531515e-03  2.9733495361718727e-02  2.8560580802934176e-02  2.6893209219536245e-02  2.7276443028124157e-02  2.8824500569228528e-02  2.7542804373551822e-02  2.8964478558718018e-02  2.7698200505092967e-02  2.9006159509153112e-02  2.7766404941042232e-02  2.8938769735326483e-02  2.7727641832130695e-02  2.8779584822397695e-02  2.7603241361442897e-02  2.8538712031307718e-02  2.7374153860029206e-02  2.8196293758677961e-02  2.7056034154914310e-02  2.7758185412531122e-02  2.6642258528429309e-02  2.7223463165465766e-02  2.6142772932950455e-02  2.6618912497463208e-02  2.5563139647778375e-02  2.5943350208533011e-02  2.4897983828558276e-02  2.5185535674711060e-02  2.4163147787932514e-02  2.4318649334858531e-02  2.3340138162120556e-02  2.3459768058914979e-02  2.2461293770496629e-02  2.5076788375606708e-02  -1.8246787031194622e-01  -2.3678408381600852e-01  -1.5930174079934792e-01  -1.5525613579378308e-01  -1.5538242196999266e-01  -1.5109464418039398e-01  -1.5124439846471183e-01  -1.4694898796431710e-01  -1.4677403887969623e-01  -1.4268346885594499e-01  -1.4226226970109951e-01  -1.3827294869391263e-01  -1.3860346760345729e-01  -1.3425648981690569e-01  -1.3396497578156533e-01  -1.2989515883507682e-01  -1.2951926513069945e-01  -1.25466987