<?xml version="1.0"?>
<VTKFile type="UnstructuredGrid"  version="0.1"  >
<UnstructuredGrid>
<Piece  NumberOfPoints="2886" NumberOfCells="5412">
<Points>
<DataArray  type="Float64"  NumberOfComponents="3"  format="ascii">0 0.1 0  0.98 0.1 0  1 0.1 0  1 0 0  1.5 0 0  3 0 0  3 0.3 0  0 0.3 0  0.01975375321854102 0.1 0  0.03918897458218897 0.1 0  0.05831079002627837 0.1 0  0.07712425666319796 0.1 0  0.0956343475259058 0.1 0  0.1138459546796227 0.1 0  0.1317638870668193 0.1 0  0.1493928840275937 0.1 0  0.1667376092280033 0.1 0  0.1838026357802664 0.1 0  0.2005924801287244 0.1 0  0.2171115811543574 0.1 0  0.2333643037107681 0.1 0  0.2493549444060462 0.1 0  0.2650877293306821 0.1 0  0.2805668058011438 0.1 0  0.2957962848620976 0.1 0  0.3107801766802674 0.1 0  0.3255224447361181 0.1 0  0.3400269848175519 0.1 0  0.3542976327080778 0.1 0  0.3683381609158136 0.1 0  0.3821522744564845 0.1 0  0.3957436316838916 0.1 0  0.4091158196437086 0.1 0  0.4222723742184605 0.1 0  0.4352167733293057 0.1 0  0.4479524348643424 0.1 0  0.4604827295467524 0.1 0  0.4728109659990664 0.1 0  0.4849404035409129 0.1 0  0.4968742471455402 0.1 0  0.508615651843175 0.1 0  0.520167721130924 0.1 0  0.5315335063628542 0.1 0  0.5427160117228604 0.1 0  0.5537181940261912 0.1 0  0.564542961924507 0.1 0  0.575193173270606 0.1 0  0.5856716438765114 0.1 0  0.5959811458006617 0.1 0  0.6061243988680743 0.1 0  0.6161040893285659 0.1 0  0.6259228503970299 0.1 0  0.6355832809287655 0.1 0  0.6450879281079505 0.1 0  0.6544393102991295 0.1 0  0.663639896558931 0.1 0  0.6726921201956305 0.1 0  0.6815983691630338 0.1 0  0.6903610031396646 0.1 0  0.6989823343332418 0.1 0  0.7074646404270378 0.1 0  0.7158101645005117 0.1 0  0.7240211149852543 0.1 0  0.7320996585612525 0.1 0  0.7400479319727645 0.1 0  0.7478680336617921 0.1 0  0.755562036504958 0.1 0  0.7631319665092091 0.1 0  0.7705798279317605 0.1 0  0.777907588066146 0.1 0  0.7851171851013118 0.1 0  0.7922105226004981 0.1 0  0.7991894774550319 0.1 0  0.8060558928136696 0.1 0  0.812811583201334 0.1 0  0.8194583352091183 0.1 0  0.8259979035038147 0.1 0  0.8324320194413813 0.1 0  0.8387623808293405 0.1 0  0.8449906627004957 0.1 0  0.8511185094880469 0.1 0  0.8571475426008311 0.1 0  0.8630793533568246 0.1 0  0.8689155114558531 0.1 0  0.8746575581239063 0.1 0  0.8803070109173519 0.1 0  0.885865363938836 0.1 0  0.8913340851680313 0.1 0  0.8967146206523592 0.1 0  0.9020083930695622 0.1 0  0.9072167995950768 0.1 0  0.9123412183131177 0.1 0  0.9173830029719022 0.1 0  0.9223434865647732 0.1 0  0.9272239785872722 0.1 0  0.9320257720706087 0.1 0  0.9367501330378739 0.1 0  0.9413983102716995 0.1 0  0.9459715351562933 0.1 0  0.9504710127113115 0.1 0  0.9548979346500661 0.1 0  0.9592534708344373 0.1 0  0.9635387708980176 0.1 0  0.9677549682252325 0.1 0  0.971903177251235 0.1 0  0.9759844952956497 0.1 0  0.9840000000000086 0.1 0  0.987999999999974 0.1 0  0.9919999999999393 0.1 0  0.9959999999999913 0.1 0  1 0.09591793123533533 0  1 0.09133596463859224 0  1 0.08619288104391448 0  1 0.08041996484521211 0  1 0.07394008421771697 0  1 0.06666666567302955 0  1 0.05850252932209174 0  1 0.04933859630113544 0  1 0.03905242821848202 0  1 0.02750659386753798 0  1 0.01454683679239736 0  1.015625 0 0  1.03125 0 0  1.046875 0 0  1.0625 0 0  1.078125 0 0  1.09375 0 0  1.109375 0 0  1.125 0 0  1.140625 0 0  1.15625 0 0  1.171875 0 0  1.1875 0 0  1.203125 0 0  1.21875 0 0  1.234375 0 0  1.25 0 0  1.265625 0 0  1.28125 0 0  1.296875 0 0  1.3125 0 0  1.328125 0 0  1.34375 0 0  1.359375 0 0  1.375 0 0  1.390625 0 0  1.40625 0 0  1.421875 0 0  1.4375 0 0  1.453125 0 0  1.46875 0 0  1.484375 0 0  1.515920751924515 0 0  1.531989369316721 0 0  1.54820720925872 0 0  1.564575665560501 0 0  1.581096138674279 0 0  1.597770029901263 0 0  1.614598783332311 0 0  1.631583831055205 0 0  1.64872661129721 0 0  1.666028606716533 0 0  1.683491276608443 0 0  1.701116134125304 0 0  1.718904673324128 0 0  1.736858414799339 0 0  1.754978895814663 0 0  1.773267661782904 0 0  1.791726281103402 0 0  1.810356325314689 0 0  1.8291593848892 0 0  1.848137076690385 0 0  1.867291007717254 0 0  1.886622833871288 0 0  1.90613418642363 0 0  1.925826753299799 0 0  1.945702199101513 0 0  1.96576223584749 0 0  1.986008569283268 0 0  2.006442931928877 0 0  2.02706707547783 0 0  2.047882750887917 0 0  2.06889175187935 0 0  2.090095860038271 0 0  2.111496891648636 0 0  2.133096679109554 0 0  2.154897066851056 0 0  2.176899916687499 0 0  2.199107102752146 0 0  2.22152053937028 0 0  2.244142122958061 0 0  2.266973806444078 0 0  2.290017523268154 0 0  2.313275249499252 0 0  2.336748971745516 0 0  2.360440702338606 0 0  2.384352453384031 0 0  2.408486280477412 0 0  2.432844240041185 0 0  2.457428414757088 0 0  2.482240901796653 0 0  2.507283830121838 0 0  2.532559332080812 0 0  2.558069568787417 0 0  2.583816724966441 0 0  2.60980299606584 0 0  2.636030600971886 0 0  2.662501790984011 0 0  2.689218818279327 0 0  2.716183964547616 0 0  2.743399548861297 0 0  2.77086788244719 0 0  2.798591312896326 0 0  2.826572223178268 0 0  2.854812990138617 0 0  2.883316031690714 0 0  2.912083780657189 0 0  2.941118704633482 0 0  2.970423276998917 0 0  3 0.02999999999994495 0  3 0.05999999999987042 0  3 0.089999999999783 0  3 0.119999999999701 0  3 0.149999999999619 0  3 0.179999999999692 0  3 0.2099999999997737 0  3 0.2399999999998511 0  3 0.2699999999999185 0  2.970138294777171 0.3 0  2.940375666438236 0.3 0  2.910711782853056 0.3 0  2.881146331305122 0.3 0  2.851678975030285 0.3 0  2.822309388626621 0.3 0  2.793037250095074 0.3 0  2.76386223529133 0.3 0  2.734784017903872 0.3 0  2.705802289276642 0.3 0  2.676916713794697 0.3 0  2.648126987654635 0.3 0  2.619432780406184 0.3 0  2.590833779385199 0.3 0  2.562329669847737 0.3 0  2.533920134950189 0.3 0  2.505604855727852 0.3 0  2.477383539822502 0.3 0  2.449255847639465 0.3 0  2.421221492569094 0.3 0  2.393280152486815 0.3 0  2.36543151914496 0.3 0  2.337675285481809 0.3 0  2.310011142385583 0.3 0  2.282438797441587 0.3 0  2.254957931061538 0.3 0  2.227568248063605 0.3 0  2.200269436651085 0.3 0  2.173061204949961 0.3 0  2.145943251515011 0.3 0  2.118915272469994 0.3 0  2.091976978084957 0.3 0  2.065128060700849 0.3 0  2.038368218849433 0.3 0  2.01169717777258 0.3 0  1.985114624111908 0.3 0  1.958620267850966 0.3 0  1.93221382054972 0.3 0  1.905894991850698 0.3 0  1.879663489459713 0.3 0  1.853519019126419 0.3 0  1.827461291053897 0.3 0  1.801490031354372 0.3 0  1.775604937580312 0.3 0  1.74980572560258 0.3 0  1.724092118631866 0.3 0  1.698463829173586 0.3 0  1.672920575782554 0.3 0  1.647462076974085 0.3 0  1.622088043536933 0.3 0  1.5967981978949 0.3 0  1.571592267767068 0.3 0  1.546469970305736 0.3 0  1.521431023814044 0.3 0  1.496475156230927 0.3 0  1.471602093687753 0.3 0  1.446811560490646 0.3 0  1.422103279101731 0.3 0  1.397476971708191 0.3 0  1.37293238939876 0.3 0  1.348469231419202 0.3 0  1.324087248732772 0.3 0  1.299786165921677 0.3 0  1.275565710847046 0.3 0  1.251425617644257 0.3 0  1.227365618676339 0.3 0  1.203385446174014 0.3 0  1.179484853067473 0.3 0  1.155663548773374 0.3 0  1.131921292279077 0.3 0  1.108257802159295 0.3 0  1.084672829009693 0.3 0  1.061166115303374 0.3 0  1.037737392995421 0.3 0  1.01438640299116 0.3 0  0.991112899770314 0.3 0  0.9679166155523955 0.3 0  0.944797284182564 0.3 0  0.921754678526042 0.3 0  0.8987885143602501 0.3 0  0.8758985548820624 0.3 0  0.8530845484099929 0.3 0  0.8303462351786988 0.3 0  0.8076833651172373 0.3 0  0.7850956864865304 0.3 0  0.7625829601354557 0.3 0  0.7401449314598274 0.3 0  0.717781337993959 0.3 0  0.6954919649675473 0.3 0  0.6732765357561226 0.3 0  0.6511348120768439 0.3 0  0.6290665642016573 0.3 0  0.6070715355430467 0.3 0  0.5851494825775325 0.3 0  0.5633001690203812 0.3 0  0.5415233562273221 0.3 0  0.5198187909431873 0.3 0  0.4981862401387795 0.3 0  0.4766254686134248 0.3 0  0.4551362360485234 0.3 0  0.4337182975262159 0.3 0  0.4123714223228037 0.3 0  0.3910953802377493 0.3 0  0.3698899313205595 0.3 0  0.3487548463710963 0.3 0  0.3276898864081783 0.3 0  0.3066948129116018 0.3 0  0.2857694003037476 0.3 0  0.2649134227095047 0.3 0  0.2441266417321288 0.3 0  0.2234088223399122 0.3 0  0.2027597568977288 0.3 0  0.1821792020676698 0.3 0  0.1616669305402443 0.3 0  0.1412227158799362 0.3 0  0.12084633013886 0.3 0  0.1005375673448281 0.3 0  0.08029618164595353 0.3 0  0.06012194778526769 0.3 0  0.04001466495039718 0.3 0  0.01997408913631205 0.3 0  0 0.2800000000000553 0  0 0.2600000000001105 0  0 0.2400000000001658 0  0 0.2200000000002211 0  0 0.2000000000002764 0  0 0.1800000000002244 0  0 0.1600000000001691 0  0 0.140000000000115 0  0 0.1200000000000564 0  1.13346801534201 0.01255848438672509 0  1.003577645172735 0.09351054173913405 0  0.9777559943702486 0.1034978156913738 0  0.9524533750752109 0.1040889939962738 0  0.9296242411226409 0.1041520033606139 0  0.9046110503652111 0.104409422380137 0  0.8777709649694228 0.1053360318797398 0  0.8483859145648608 0.1061007868330701 0  0.8162363822948977 0.1052777104363292 0  0.7893110024210437 0.1060761643971561 0  0.7587949382612539 0.1067265405088633 0  0.7280603867732535 0.1069398153264939 0  0.6947001989413015 0.1075609887579097 0  0.6590363283767549 0.1076715322596598 0  0.6210028614493155 0.1072970410408442 0  1.1953125 0.01353164693413185 0  1.258193991486058 0.01269648635163345 0  1.3201967268638 0.01407907077719561 0  1.383538555392096 0.01434101079053473 0  1.445312500000001 0.01303671693628424 0  1.508925448095738 0.01398525724792267 0  0.9939176689634008 0.1034638089837981 0  1.120967497222226 0.2796788492172345 0  1.572835902117391 0.01424132418857359 0  1.637573277451887 0.01212536916586023 0  1.709730776795181 0.01466855431023635 0  1.005631976950563 0.07074019818158772 0  1.784944696816299 0.01454708406461822 0  0.5805605730631225 0.1101465090472147 0  1.855621181165637 0.01550931272897607 0  0.5366111276616774 0.1096761308243709 0  1.935200147913231 0.01760344159641829 0  1.214922267975168 0.2799787705802257 0  1.31178773425331 0.2792
[...]
<PointData  Scalars="pressure"> 
<DataArray  type="Float64"  Name="pressure"  format="ascii">4.0485058013367997e-01  -7.6194863502985613e-02  2.5626951343864646e-01  3.0478221276336170e-01  3.0755832173639008e-01  0.0000000000000000e+00  0.0000000000000000e+00  4.0489933205860223e-01  3.9892447854326224e-01  3.9309345367082610e-01  3.8735576738319089e-01  3.8170984509147315e-01  3.7615404654585599e-01  3.7068681537142134e-01  3.6530676722784328e-01  3.6001213606307680e-01  3.5480154640822764e-01  3.4967351359207766e-01  3.4462631622848933e-01  3.3965850746652954e-01  3.3476874149913055e-01  3.2995520374772752e-01  3.2521640965279447e-01  3.2055134128893759e-01  3.1595760259989697e-01  3.1143406983390914e-01  3.0697917870528396e-01  3.0259083534416725e-01  2.9826778542113791e-01  2.9400894990197940e-01  2.8981149796101058e-01  2.8567447879363334e-01  2.8159532532970377e-01  2.7757269750389568e-01  2.7360560034170278e-01  2.6969124584675963e-01  2.6582745968052174e-01  2.6201287553407643e-01  2.5824544757555068e-01  2.5452258841906078e-01  2.5084305494096093e-01  2.4720378670435891e-01  2.4360312139620305e-01  2.4003826014638013e-01  2.3650704668770095e-01  2.3300987495347986e-01  2.2953912877711294e-01  2.2609576721211819e-01  2.2267657847616662e-01  2.1927786717068903e-01  2.1589730156170753e-01  2.1253599681594720e-01  2.0918469228124290e-01  2.0584436805366421e-01  2.0251155956824457e-01  1.9918254813910988e-01  1.9585489325602981e-01  1.9252521620606322e-01  1.8918915995529539e-01  1.8584440837400107e-01  1.8248790541953369e-01  1.7911655308816660e-01  1.7572283627716373e-01  1.7230763286286652e-01  1.6886523553606192e-01  1.6539521829048656e-01  1.6188330110858659e-01  1.5833307819622605e-01  1.5474391788972186e-01  1.5110561757371604e-01  1.4740930878079056e-01  1.4366026156725134e-01  1.3984299336572684e-01  1.3595724964691153e-01  1.3200070094450869e-01  1.2796233240931124e-01  1.2383611453006388e-01  1.1961605109787228e-01  1.1528955388925352e-01  1.1085107077598805e-01  1.0630574344939385e-01  1.0163434055968731e-01  9.6814151347675445e-02  9.1848742058873362e-02  8.6726412719160068e-02  8.1427692214763522e-02  7.5941624918120759e-02  7.0251575942384181e-02  6.4334916956461555e-02  5.8163513874110645e-02  5.1716220001340567e-02  4.4972587854465403e-02  3.7881197948055612e-02  3.0401301660618552e-02  2.2484387293397131e-02  1.4060533731627967e-02  5.0505458167850468e-03  -4.6494163902572241e-03  -1.5179782778508302e-02  -2.6726528545160489e-02  -3.9544279470553341e-02  -5.3970226277648990e-02  -7.0696692033816219e-02  -9.0691636453245308e-02  -1.1256227186426852e-01  -1.6538663543429691e-01  -4.8161010887363015e-01  -4.8698745469603255e-01  -2.8497114318940686e-01  -7.8868842376939682e-02  1.8854668459415572e-01  2.4477514903149300e-01  2.5964334360543084e-01  2.7330657292860133e-01  2.8303216283794724e-01  2.9035802463758908e-01  2.9570508158735620e-01  2.9966161542765024e-01  3.0239308120685593e-01  3.0400877811846316e-01  3.0472145842358250e-01  3.0496162579980912e-01  3.0588203167485511e-01  3.0735579335337060e-01  3.0867312606175862e-01  3.0912247362540107e-01  3.0815151024553483e-01  3.0558776820499434e-01  3.0148056062220696e-01  2.9641334266523384e-01  2.9122577332437116e-01  2.8683786211907353e-01  2.8418503898388880e-01  2.8403318201004379e-01  2.8678958700258250e-01  2.9223292718694022e-01  2.9982486761344662e-01  3.0872978996944522e-01  3.1795016015545752e-01  3.2657131233429243e-01  3.3364405860037061e-01  3.3899466602969858e-01  3.4214534826188475e-01  3.4314025310978730e-01  3.4222689971353443e-01  3.3962448853853733e-01  3.3584522429009689e-01  3.3106290062179311e-01  3.2593720888942995e-01  3.2073472260128572e-01  3.1578876492365821e-01  3.1134965247011803e-01  3.0443274482669919e-01  3.0202411125210077e-01  3.0020815195963668e-01  2.9883402656006547e-01  2.9773714271386709e-01  2.9663121593076680e-01  2.9535400416610841e-01  2.9365455248815153e-01  2.9129758065771744e-01  2.8817349582979723e-01  2.8422603869608609e-01  2.7935809448018101e-01  2.7358090782872768e-01  2.6704718112516784e-01  2.5997330539875979e-01  2.5265923266955231e-01  2.4557429816912049e-01  2.3936404598065009e-01  2.3423339649297800e-01  2.3100114516627201e-01  2.2978859660637987e-01  2.3065793299917856e-01  2.3343433258458507e-01  2.3761989747285714e-01  2.4254452870234747e-01  2.4746923528027590e-01  2.5135817014786738e-01  2.5382629672574092e-01  2.5421714816020008e-01  2.5226509005964487e-01  2.4791024098070757e-01  2.4139644100988644e-01  2.3306151048859453e-01  2.2332222372509208e-01  2.1251117152356438e-01  2.0108608368948050e-01  1.8932781264967191e-01  1.7754179226906835e-01  1.6591150050483652e-01  1.5461465026367072e-01  1.4382452401185683e-01  1.3370739329329348e-01  1.2440962667625988e-01  1.1613522307155988e-01  1.0898903919984920e-01  1.0304164955331098e-01  9.8326764966967115e-02  9.4761918720449298e-02  9.2015962707705456e-02  8.9944488138764392e-02  8.8116079805111033e-02  8.6291485936876133e-02  8.4075900103302029e-02  8.1409474206122254e-02  7.8052595885622855e-02  7.3877580118764177e-02  6.9182602444238558e-02  6.3690435535966622e-02  5.7847330157608859e-02  5.1629015467461473e-02  4.5210060466972700e-02  3.8547592367401406e-02  3.1969537072252661e-02  2.5417115801206289e-02  1.8993049607919348e-02  1.2714006444287189e-02  6.3521597155021450e-03  0.0000000000000000e+00  0.0000000000000000e+00  0.0000000000000000e+00  0.0000000000000000e+00  0.0000000000000000e+00  0.0000000000000000e+00  0.0000000000000000e+00  0.0000000000000000e+00  0.0000000000000000e+00  7.4354344551012790e-03  1.4381120040520926e-02  2.1379536366242281e-02  2.8078495512121580e-02  3.4552862916984277e-02  4.0867154253325585e-02  4.7108803323618824e-02  5.3379787324433839e-02  5.9782535221666273e-02  6.6434892702271153e-02  7.3411688928903193e-02  8.0759989158511389e-02  8.8435208048172495e-02  9.6319983921106023e-02  1.0419820578295552e-01  1.1178949923896885e-01  1.1873410884566249e-01  1.2461792393538493e-01  1.2907294075983949e-01  1.3182075631261411e-01  1.3275764527877085e-01  1.3202573957547170e-01  1.3007670899262383e-01  1.2763920163132947e-01  1.2564773853906072e-01  1.2509957899666105e-01  1.2687105139398655e-01  1.3148356025326646e-01  1.3920051327836461e-01  1.4974692728245681e-01  1.6255057402808293e-01  1.7684804684480016e-01  1.9206154118240465e-01  2.0697808006992238e-01  2.2140281780712287e-01  2.3508598320502136e-01  2.4750617952786755e-01  2.5874353155237934e-01  2.6858616970174293e-01  2.7729575818718144e-01  2.8436137131412076e-01  2.8984042205737071e-01  2.9354431206013698e-01  2.9533059023924280e-01  2.9526121640322850e-01  2.9359384353765006e-01  2.9076836626602465e-01  2.8742308357998458e-01  2.8418275643798702e-01  2.8145632815747107e-01  2.7944846501476739e-01  2.7803217143195946e-01  2.7679695990620662e-01  2.7525750798094578e-01  2.7299729418864255e-01  2.6979581639209932e-01  2.6579379759175931e-01  2.6142505081883205e-01  2.5725569046765978e-01  2.5393405010071129e-01  2.5185723004781241e-01  2.5103604738294366e-01  2.5117093703523080e-01  2.5157399309690448e-01  2.5156388273284697e-01  2.5053021515429430e-01  2.4817058463716909e-01  2.4448466714441133e-01  2.3977863152212900e-01  2.3443144078410239e-01  2.2879793127979708e-01  2.2311293747516212e-01  2.1749861862348899e-01  2.1196328645307910e-01  2.0651028152678230e-01  2.0126801191998006e-01  1.9642006082931301e-01  1.9217486483369123e-01  1.8873664753555044e-01  1.8613365065011436e-01  1.8472196237641658e-01  1.8438210780182504e-01  1.8512568889055370e-01  1.8665681953512228e-01  1.8904415328811053e-01  1.9221815222891483e-01  1.9594945591396912e-01  2.0017857527378005e-01  2.0487214684989064e-01  2.0989784593009606e-01  2.1523329581155812e-01  2.2076613119336333e-01  2.2648032806902371e-01  2.3236290144537580e-01  2.3833744114861613e-01  2.4439640727861428e-01  2.5053241714350305e-01  2.5672183034979251e-01  2.6294279236424634e-01  2.6918718509591605e-01  2.7545114037185969e-01  2.8172364752499124e-01  2.8800295471350390e-01  2.9427740937744928e-01  3.0054907865665126e-01  3.0681247945755447e-01  3.1306520836995949e-01  3.1930623588785162e-01  3.2553293391394861e-01  3.3174455302588784e-01  3.3794040447521900e-01  3.4411943024625019e-01  3.5028100891344138e-01  3.5642472408331582e-01  3.6255024815398829e-01  3.6865701733219780e-01  3.7474515859592478e-01  3.8081436675232422e-01  3.8686444095003630e-01  3.9289539607237978e-01  3.9890703935980598e-01  4.0489914256068948e-01  4.0489711146741825e-01  4.0489215990235922e-01  4.0488439393582865e-01  4.0487496451592575e-01  4.0486552538139503e-01  4.0485774317149892e-01  4.0485275854200969e-01  4.0485073458423709e-01  2.9964744940193522e-01  2.4332490029475948e-01  -1.8920838654970712e-01  -3.5300694492308264e-02  1.6946188823817290e-02  5.4131467919156656e-02  8.3183711423012507e-02  1.0787009386064067e-01  1.2963620457431491e-01  1.4496009714867270e-01  1.6019236668408915e-01  1.7388451343913389e-01  1.8740522820227526e-01  2.0077868288545567e-01  2.1417589963227002e-01  2.8380593923741193e-01  3.0317476227935319e-01  3.3564265676786487e-01  3.4075002874161009e-01  3.2326538663923343e-01  3.0545338080514378e-01  -3.7357316020170825e-02  2.3244096908144132e-01  2.9789925543385942e-01  2.9271344750917794e-01  2.7692434669470128e-01  2.8633475019604426e-01  2.4859705018559447e-01  2.2773628881722036e-01  2.2994372102820429e-01  2.4196070603263262e-01  2.3849270635074504e-01  2.4998220282893355e-01  2.5129155824459265e-01  2.5329687623597130e-01  2.5894303406637081e-01  2.5637178149575729e-01  2.7604833971334636e-01  2.3784867492282491e-01  2.7163826986636608e-01  3.0935152611009159e-01  1.9594042513763377e-01  2.8496667829071637e-01  2.1546006499599099e-01  2.8730031397213640e-01  1.4989200592394539e-01  2.9191118754798462e-01  3.0497050979915008e-01  2.7374089541324914e-01  1.1242029914099921e-01  2.4107353440027365e-01  3.2235776620581480e-01  2.0027322688322152e-01  9.3364328004936326e-02  1.9958649112286223e-01  1.8833018294493978e-01  1.5529344835094061e-01  8.5175342257762202e-02  1.8523976722842125e-01  3.4261833817789994e-01  3.5665830861861125e-01  2.9404551853757033e-01  7.6058114291802717e-02  6.0206639615766701e-02  1.2838584219700075e-01  1.9075474261508399e-01  1.2827301253852397e-01  -8.3312587395252727e-02  2.0714260326045056e-01  1.3211791120992034e-01  3.7412544464358433e-01  2.2363701503588201e-01  4.1865615970469054e-02  1.1546376566569294e-01  2.4150281434286269e-01  2.6623635953503927e-01  9.2337595242225776e-02  2.9741750769857700e-01  6.9774460264580743e-02  3.1624316993697948e-01  3.3494921447354875e-01  5.0144219734635426e-02  3.6649755225591291e-01  6.4329295388148777e-03  3.9929872412796547e-01  3.0092022042152772e-01  3.1802355205529743e-02  2.1808243285343996e-02  3.8429042042980377e-01  2.6855842164479682e-01  3.0815246780734240e-01  2.4270947124537220e-01  1.9826434808710849e-01  2.5316641008434881e-01  2.7826931544799860e-01  3.8458417315300192e-01  2.7826578858233403e-01  2.6788818483889748e-01  2.5263544599208487e-01  2.5217112396139463e-01  3.3265616518078545e-01  1.2440511715963971e-01  3.1340425039187103e-01  3.4716353088775581e-01  1.2689963741713328e-01  8.8930320924926393e-02  2.9556921394400276e-01  1.0019428696964040e-01  1.2953223081503187e-01  2.7983059781835296e-01  1.7249513660859667e-01  2.1867267986461125e-01  2.5029272309355927e-01  2.4866766598197262e-01  3.0069547469550967e-01  2.6390780870325459e-01  2.3066303867070762e-01  2.3667164245360098e-01  2.4902302716230026e-01  2.6335707758617827e-01  2.8637948105446853e-01  2.9566537352645811e-01  4.9203591115147410e-03  2.3434514672015422e-01  2.2143381874361445e-01  3.9962303604500710e-01  2.0781290972652319e-01  1.9410415898147165e-01  1.8068471493312019e-01  1.6683535636976790e-01  1.5264130161823145e-01  1.3781329595972189e-01  2.8925884525628143e-01  1.1708507946283772e-01  9.3854918290912762e-02  6.6570325799711977e-02  2.8828697661439701e-01  3.2854750460049757e-02  3.4231942636069773e-01  3.2197964640990312e-01  3.3409680394159247e-01  3.1335741768171749e-01  -1.1768620362299538e-02  -3.9609166433975357e-01  6.8097260384541143e-03  3.9915506403482953e-01  1.7786351151256933e-02  3.0536616136010047e-01  3.9986669659415019e-01  4.9103149131574306e-03  3.9580353286759845e-01  3.0663273145022391e-01  3.0751667484020651e-01  3.0931280916563897e-01  3.0896770979970073e-01  3.1121620585917409e-01  3.1125055765544113e-01  3.1432572211452647e-01  3.1486814025523113e-01  3.1854059076993696e-01  3.1956962425969571e-01  3.2343733112339962e-01  3.2420835999298997e-01  3.2773675247542328e-01  3.2694958112311795e-01  3.2943494398549789e-01  3.2584576323907261e-01  3.2672504208657699e-01  3.1986804622061743e-01  3.1901932716184744e-01  3.0899747096453806e-01  3.0781451660982662e-01  3.0641241772780353e-01  3.1627552505058593e-01  3.0330509320822951e-01  2.9470457552005319e-01  2.8930994618733596e-01  3.0781055307163824e-01  2.9622099073461466e-01  2.9775611365202614e-01  2.8739845511316692e-01  2.8620665198250456e-01  2.7900652269016030e-01  2.7592390115433374e-01  2.7229581808232700e-01  2.6863203283210541e-01  2.6836870753160269e-01  2.6642392336954435e-01  2.6832301939636627e-01  2.6920350892107908e-01  2.7173159549148179e-01  2.7647138969924340e-01  2.7740991500159451e-01  2.8604694427285515e-01  2.8383256514854549e-01  2.9594216335153800e-01  2.8997137223370534e-01  3.0433210048281634e-01  2.9433314075749090e-01  3.1003421582378016e-01  2.9709005070611921e-01  3.1183863982162208e-01  2.9793420184016112e-01  3.1388578643776194e-01  2.7772801513385814e-01  2.6865640333251944e-01  2.9676260273018962e-01  3.1036768813776422e-01  2.9596644426898283e-01  3.0739754467833508e-01  2.9370112667763215e-01  3.0338824125126307e-01  2.9197953448619807e-01  2.9943117724988949e-01  2.9031458997301535e-01  2.9061092646455255e-01  2.9586854086888342e-01  2.8839793158829391e-01  2.9282033128277407e-01  2.8835064382275249e-01  2.9078311263613038e-01  2.5982170107968527e-01  2.4666282002932602e-01  3.2182755205583358e-01  2.8739682935672961e-01  2.8937547042705675e-01  2.8671874910958606e-01  2.8854329120594918e-01  2.8602910833920098e-01  2.8815603166264508e-01  2.7469269397573898e-01  2.8546100119363338e-01  2.8794003129446089e-01  2.7285356458986076e-01  2.8498052679599645e-01  2.8772065416415726e-01  2.8467034784576267e-01  2.8730438521420010e-01  2.8455921515802834e-01  2.8653457131478999e-01  3.2850383940241257e-01  2.6871834677915835e-01  2.8450149724699886e-01  2.8532291483645272e-01  2.4228380333301469e-01  2.2886512478595042e-01  2.5204484811249972e-01  2.7843883265383135e-01  2.8448023554347784e-01  2.8353325138284591e-01  2.8440722498596172e-01  2.8114216912261597e-01  2.8406651695281437e-01  2.7842055412871192e-01  2.9211651829508112e-01  2.8463556333832252e-01  2.9033613089591875e-01  3.0367662688366115e-01  2.8339055331941382e-01  2.7543909776950054e-01  2.7084370791520751e-01  2.6563322630964031e-01  2.7226707000989209e-01  2.6071712810709485e-01  2.6901678811339547e-01  2.5630841626246592e-01  2.6605692175903856e-01  2.5300662237293164e-01  2.6331478532934754e-01  2.5055881388732426e-01  2.6048725141311418e-01  2.4882832393261070e-01  2.5754799782096893e-01  2.4717425640322002e-01  2.5351052203695268e-01  2.4461398646303309e-01  2.4816961821323352e-01  2.4102397479720955e-01  2.4115067017442879e-01  2.3556117856300543e-01  2.3222021292342968e-01  2.2778092291631852e-01  3.2010840728367929e-01  2.8232654621140152e-01  2.2139617750898616e-01  2.1794639694350537e-01  2.0913545901552738e-01  2.0633057438540037e-01  2.8046063432220930e-01  3.1029589448334499e-01  1.9567342056388065e-01  1.9363108755883435e-01  2.7264995286726129e-01  2.8366715966152961e-01  2.2810270037738917e-01  2.1430191086685993e-01  2.0869563701879482e-01  1.9629738241511954e-01  1.8358822043470746e-01  1.7628713182544672e-01  1.5392822060288244e-01  1.5437452273019917e-01  1.2963831659289587e-01  1.3474637789549643e-01  1.0558524115950697e-01  1.1777264712422857e-01  8.9565789315902145e-02  1.0548678726871064e-01  7.9472821186820114e-02  9.7337251526510446e-02  7.5149846691698968e-02  9.3521886280386296e-02  7.5029659862536499e-02  9.3043249797249483e-02  7.7954468096390950e-02  9.4913561849759062e-02  8.2595392967960771e-02  9.8217475598746287e-02  8.8266382157463019e-02  1.0239124509116583e-01  9.5204966339275693e-02  1.0821365072549655e-01  1.1650527714719332e-01  1.2017726322676880e-01  1.1313831351629527e-01  1.2412436664098743e-01  1.1751273401091490e-01  1.2810918016542594e-01  1.2313424979468740e-01  1.3261540815158715e-01  1.2497217806642552e-01  1.3013072161355976e-01  1.1030182126127253e-01  1.2849300114937834e-01  1.3722940621278340e-01  1.4239538222913417e-01  1.4604654246426943e-01  1.4188535372187147e-01  1.4970771931835822e-01  1.4663119360458210e-01  1.5371120144127312e-01  1.5138232937362439e-01  1.5806056503680577e-01  1.5477833691227791e-01  1.6755558483703512e-01  7.1402240530541852e-02  1.5605941995717776e-01  1.6235188057889466e-01  1.6476534438866958e-01  1.6868450548269096e-01  1.6663847831107889e-01  1.7246664745409426e-01  1.7103769531938143e-01  1.7643229018496157e-01  5.2512723206517703e-02  1.7488258751995711e-01  1.7541987514318202e-01  1.8038346898407731e-01  5.9647512840502265e-02  1.7966931387772053e-01  1.8450136966774683e-01  1.8514851514115660e-01  1.8936203256994960e-01  1.8870651496018181e-01  1.9341699355857428e-01  1.9433329187733706e-01  1.9813085990945645e-01  1.9748380984730809e-01  2.0199733664778691e-01  2.0160927953544611e-01  2.0602072123075621e-01  2.0647366532342923e-01  2.1032391445335089e-01  2.1012843936527431e-01  2.1426237758798866e-01  2.1423648780785604e-01  2.1826212305923628e-01  1.9045946342825887e-01  1.0693885703637344e-01  7.4631380627267277e-02  2.1830439997030504e-01  2.2227553174890463e-01  2.2227821084019786e-01  2.2634350411715998e-01  2.2648377505010958e-01  2.3044353107202692e-01  2.2636030782475666e-01  1.8168222537285647e-01  1.8046096502793044e-01  1.6797768718784908e-01  1.6757110250582147e-01  1.5499959075569517e-01  1.5566314390825362e-01  1.3912917004289907e-01  2.8437235013616718e-01  3.1052900674567013e-01  2.3075011917252988e-01  2.3456489459614749e-01  1.1995629361225628e-01  2.3879973773993138e-01  2.3359459367344029e-01  2.6262935891596073e-01  1.4350277889302132e-01  1.4549381864216498e-01  1.6171126316572265e-01  1.5219550842978291e-01  1.3741931056504750e-01  1.4447646771797457e-01  1.3176070261882095e-01  1.3857563268006848e-01  1.2827733327811744e-01  1.3422988875675973e-01  1.2675272471447399e-01  1.3113926592989800e-01  1.2650872224121845e-01  1.2876618658910155e-01  1.2697992930679972e-01  1.2681674041575405e-01  1.2752546455182293e-01  1.2484944923925484e-01  1.2753931152417780e-01  1.2259809088571662e-01  1.2657113734295170e-01  1.1990404947799543e-01  1.2462578198529438e-01  1.1675040184404589e-01  1.2167343319608155e-01  1.1320752649285974e-01  1.1759642498379386e-01  1.0917067340764830e-01  1.1237086932808642e-01  1.0469248435009171e-01  1.0715828630909703e-01  9.9880661984101254e-02  1.9698157891398990e-01  2.1071166252579168e-01  1.6524071626280018e-01  2.3509811672883085e-01  2.3883198368678679e-01  2.3834513047079786e-01  2.4270072930944114e-01  2.4218213919424592e-01  2.4658483537092307e-01  2.4706894255543929e-01  2.5092879350251174e-01  2.5160722982295947e-01  2.5539619534430241e-01  2.5481123386243887e-01  2.5923633239308447e-01  2.5974001851866657e-01  2.6365552714703555e-01  2.6420320594768421e-01  2.6812235102615722e-01  2.6755782373519671e-01  2.7207885712936319e-01  2.7264087770383427e-01  2.7660097628134600e-01  2.1750031477149900e-01  1.4993905217646553e-01  1.0082585116116989e-01  9.4601624050699371e-02  9.4600299785407890e-02  8.9054293365100901e-02  8.8088178008492668e-02  8.3160051502254043e-02  2.8301422530279868e-01  2.8214544851220485e-01  2.7733008218622385e-01  2.8122336526236402e-01  2.8058112092541287e-01  2.8517754798731