<?xml version="1.0"?>
<VTKFile type="UnstructuredGrid"  version="0.1"  >
<UnstructuredGrid>
<Piece  NumberOfPoints="2886" NumberOfCells="5412">
<Points>
<DataArray  type="Float64"  NumberOfComponents="3"  format="ascii">0 0.1 0  0.98 0.1 0  1 0.1 0  1 0 0  1.5 0 0  3 0 0  3 0.3 0  0 0.3 0  0.01975375321854102 0.1 0  0.03918897458218897 0.1 0  0.05831079002627837 0.1 0  0.07712425666319796 0.1 0  0.0956343475259058 0.1 0  0.1138459546796227 0.1 0  0.1317638870668193 0.1 0  0.1493928840275937 0.1 0  0.1667376092280033 0.1 0  0.1838026357802664 0.1 0  0.2005924801287244 0.1 0  0.2171115811543574 0.1 0  0.2333643037107681 0.1 0  0.2493549444060462 0.1 0  0.2650877293306821 0.1 0  0.2805668058011438 0.1 0  0.2957962848620976 0.1 0  0.3107801766802674 0.1 0  0.3255224447361181 0.1 0  0.3400269848175519 0.1 0  0.3542976327080778 0.1 0  0.3683381609158136 0.1 0  0.3821522744564845 0.1 0  0.3957436316838916 0.1 0  0.4091158196437086 0.1 0  0.4222723742184605 0.1 0  0.4352167733293057 0.1 0  0.4479524348643424 0.1 0  0.4604827295467524 0.1 0  0.4728109659990664 0.1 0  0.4849404035409129 0.1 0  0.4968742471455402 0.1 0  0.508615651843175 0.1 0  0.520167721130924 0.1 0  0.5315335063628542 0.1 0  0.5427160117228604 0.1 0  0.5537181940261912 0.1 0  0.564542961924507 0.1 0  0.575193173270606 0.1 0  0.5856716438765114 0.1 0  0.5959811458006617 0.1 0  0.6061243988680743 0.1 0  0.6161040893285659 0.1 0  0.6259228503970299 0.1 0  0.6355832809287655 0.1 0  0.6450879281079505 0.1 0  0.6544393102991295 0.1 0  0.663639896558931 0.1 0  0.6726921201956305 0.1 0  0.6815983691630338 0.1 0  0.6903610031396646 0.1 0  0.6989823343332418 0.1 0  0.7074646404270378 0.1 0  0.7158101645005117 0.1 0  0.7240211149852543 0.1 0  0.7320996585612525 0.1 0  0.7400479319727645 0.1 0  0.7478680336617921 0.1 0  0.755562036504958 0.1 0  0.7631319665092091 0.1 0  0.7705798279317605 0.1 0  0.777907588066146 0.1 0  0.7851171851013118 0.1 0  0.7922105226004981 0.1 0  0.7991894774550319 0.1 0  0.8060558928136696 0.1 0  0.812811583201334 0.1 0  0.8194583352091183 0.1 0  0.8259979035038147 0.1 0  0.8324320194413813 0.1 0  0.8387623808293405 0.1 0  0.8449906627004957 0.1 0  0.8511185094880469 0.1 0  0.8571475426008311 0.1 0  0.8630793533568246 0.1 0  0.8689155114558531 0.1 0  0.8746575581239063 0.1 0  0.8803070109173519 0.1 0  0.885865363938836 0.1 0  0.8913340851680313 0.1 0  0.8967146206523592 0.1 0  0.9020083930695622 0.1 0  0.9072167995950768 0.1 0  0.9123412183131177 0.1 0  0.9173830029719022 0.1 0  0.9223434865647732 0.1 0  0.9272239785872722 0.1 0  0.9320257720706087 0.1 0  0.9367501330378739 0.1 0  0.9413983102716995 0.1 0  0.9459715351562933 0.1 0  0.9504710127113115 0.1 0  0.9548979346500661 0.1 0  0.9592534708344373 0.1 0  0.9635387708980176 0.1 0  0.9677549682252325 0.1 0  0.971903177251235 0.1 0  0.9759844952956497 0.1 0  0.9840000000000086 0.1 0  0.987999999999974 0.1 0  0.9919999999999393 0.1 0  0.9959999999999913 0.1 0  1 0.09591793123533533 0  1 0.09133596463859224 0  1 0.08619288104391448 0  1 0.08041996484521211 0  1 0.07394008421771697 0  1 0.06666666567302955 0  1 0.05850252932209174 0  1 0.04933859630113544 0  1 0.03905242821848202 0  1 0.02750659386753798 0  1 0.01454683679239736 0  1.015625 0 0  1.03125 0 0  1.046875 0 0  1.0625 0 0  1.078125 0 0  1.09375 0 0  1.109375 0 0  1.125 0 0  1.140625 0 0  1.15625 0 0  1.171875 0 0  1.1875 0 0  1.203125 0 0  1.21875 0 0  1.234375 0 0  1.25 0 0  1.265625 0 0  1.28125 0 0  1.296875 0 0  1.3125 0 0  1.328125 0 0  1.34375 0 0  1.359375 0 0  1.375 0 0  1.390625 0 0  1.40625 0 0  1.421875 0 0  1.4375 0 0  1.453125 0 0  1.46875 0 0  1.484375 0 0  1.515920751924515 0 0  1.531989369316721 0 0  1.54820720925872 0 0  1.564575665560501 0 0  1.581096138674279 0 0  1.597770029901263 0 0  1.614598783332311 0 0  1.631583831055205 0 0  1.64872661129721 0 0  1.666028606716533 0 0  1.683491276608443 0 0  1.701116134125304 0 0  1.718904673324128 0 0  1.736858414799339 0 0  1.754978895814663 0 0  1.773267661782904 0 0  1.791726281103402 0 0  1.810356325314689 0 0  1.8291593848892 0 0  1.848137076690385 0 0  1.867291007717254 0 0  1.886622833871288 0 0  1.90613418642363 0 0  1.925826753299799 0 0  1.945702199101513 0 0  1.96576223584749 0 0  1.986008569283268 0 0  2.006442931928877 0 0  2.02706707547783 0 0  2.047882750887917 0 0  2.06889175187935 0 0  2.090095860038271 0 0  2.111496891648636 0 0  2.133096679109554 0 0  2.154897066851056 0 0  2.176899916687499 0 0  2.199107102752146 0 0  2.22152053937028 0 0  2.244142122958061 0 0  2.266973806444078 0 0  2.290017523268154 0 0  2.313275249499252 0 0  2.336748971745516 0 0  2.360440702338606 0 0  2.384352453384031 0 0  2.408486280477412 0 0  2.432844240041185 0 0  2.457428414757088 0 0  2.482240901796653 0 0  2.507283830121838 0 0  2.532559332080812 0 0  2.558069568787417 0 0  2.583816724966441 0 0  2.60980299606584 0 0  2.636030600971886 0 0  2.662501790984011 0 0  2.689218818279327 0 0  2.716183964547616 0 0  2.743399548861297 0 0  2.77086788244719 0 0  2.798591312896326 0 0  2.826572223178268 0 0  2.854812990138617 0 0  2.883316031690714 0 0  2.912083780657189 0 0  2.941118704633482 0 0  2.970423276998917 0 0  3 0.02999999999994495 0  3 0.05999999999987042 0  3 0.089999999999783 0  3 0.119999999999701 0  3 0.149999999999619 0  3 0.179999999999692 0  3 0.2099999999997737 0  3 0.2399999999998511 0  3 0.2699999999999185 0  2.970138294777171 0.3 0  2.940375666438236 0.3 0  2.910711782853056 0.3 0  2.881146331305122 0.3 0  2.851678975030285 0.3 0  2.822309388626621 0.3 0  2.793037250095074 0.3 0  2.76386223529133 0.3 0  2.734784017903872 0.3 0  2.705802289276642 0.3 0  2.676916713794697 0.3 0  2.648126987654635 0.3 0  2.619432780406184 0.3 0  2.590833779385199 0.3 0  2.562329669847737 0.3 0  2.533920134950189 0.3 0  2.505604855727852 0.3 0  2.477383539822502 0.3 0  2.449255847639465 0.3 0  2.421221492569094 0.3 0  2.393280152486815 0.3 0  2.36543151914496 0.3 0  2.337675285481809 0.3 0  2.310011142385583 0.3 0  2.282438797441587 0.3 0  2.254957931061538 0.3 0  2.227568248063605 0.3 0  2.200269436651085 0.3 0  2.173061204949961 0.3 0  2.145943251515011 0.3 0  2.118915272469994 0.3 0  2.091976978084957 0.3 0  2.065128060700849 0.3 0  2.038368218849433 0.3 0  2.01169717777258 0.3 0  1.985114624111908 0.3 0  1.958620267850966 0.3 0  1.93221382054972 0.3 0  1.905894991850698 0.3 0  1.879663489459713 0.3 0  1.853519019126419 0.3 0  1.827461291053897 0.3 0  1.801490031354372 0.3 0  1.775604937580312 0.3 0  1.74980572560258 0.3 0  1.724092118631866 0.3 0  1.698463829173586 0.3 0  1.672920575782554 0.3 0  1.647462076974085 0.3 0  1.622088043536933 0.3 0  1.5967981978949 0.3 0  1.571592267767068 0.3 0  1.546469970305736 0.3 0  1.521431023814044 0.3 0  1.496475156230927 0.3 0  1.471602093687753 0.3 0  1.446811560490646 0.3 0  1.422103279101731 0.3 0  1.397476971708191 0.3 0  1.37293238939876 0.3 0  1.348469231419202 0.3 0  1.324087248732772 0.3 0  1.299786165921677 0.3 0  1.275565710847046 0.3 0  1.251425617644257 0.3 0  1.227365618676339 0.3 0  1.203385446174014 0.3 0  1.179484853067473 0.3 0  1.155663548773374 0.3 0  1.131921292279077 0.3 0  1.108257802159295 0.3 0  1.084672829009693 0.3 0  1.061166115303374 0.3 0  1.037737392995421 0.3 0  1.01438640299116 0.3 0  0.991112899770314 0.3 0  0.9679166155523955 0.3 0  0.944797284182564 0.3 0  0.921754678526042 0.3 0  0.8987885143602501 0.3 0  0.8758985548820624 0.3 0  0.8530845484099929 0.3 0  0.8303462351786988 0.3 0  0.8076833651172373 0.3 0  0.7850956864865304 0.3 0  0.7625829601354557 0.3 0  0.7401449314598274 0.3 0  0.717781337993959 0.3 0  0.6954919649675473 0.3 0  0.6732765357561226 0.3 0  0.6511348120768439 0.3 0  0.6290665642016573 0.3 0  0.6070715355430467 0.3 0  0.5851494825775325 0.3 0  0.5633001690203812 0.3 0  0.5415233562273221 0.3 0  0.5198187909431873 0.3 0  0.4981862401387795 0.3 0  0.4766254686134248 0.3 0  0.4551362360485234 0.3 0  0.4337182975262159 0.3 0  0.4123714223228037 0.3 0  0.3910953802377493 0.3 0  0.3698899313205595 0.3 0  0.3487548463710963 0.3 0  0.3276898864081783 0.3 0  0.3066948129116018 0.3 0  0.2857694003037476 0.3 0  0.2649134227095047 0.3 0  0.2441266417321288 0.3 0  0.2234088223399122 0.3 0  0.2027597568977288 0.3 0  0.1821792020676698 0.3 0  0.1616669305402443 0.3 0  0.1412227158799362 0.3 0  0.12084633013886 0.3 0  0.1005375673448281 0.3 0  0.08029618164595353 0.3 0  0.06012194778526769 0.3 0  0.04001466495039718 0.3 0  0.01997408913631205 0.3 0  0 0.2800000000000553 0  0 0.2600000000001105 0  0 0.2400000000001658 0  0 0.2200000000002211 0  0 0.2000000000002764 0  0 0.1800000000002244 0  0 0.1600000000001691 0  0 0.140000000000115 0  0 0.1200000000000564 0  1.13346801534201 0.01255848438672509 0  1.003577645172735 0.09351054173913405 0  0.9777559943702486 0.1034978156913738 0  0.9524533750752109 0.1040889939962738 0  0.9296242411226409 0.1041520033606139 0  0.9046110503652111 0.104409422380137 0  0.8777709649694228 0.1053360318797398 0  0.8483859145648608 0.1061007868330701 0  0.8162363822948977 0.1052777104363292 0  0.7893110024210437 0.1060761643971561 0  0.7587949382612539 0.1067265405088633 0  0.7280603867732535 0.1069398153264939 0  0.6947001989413015 0.1075609887579097 0  0.6590363283767549 0.1076715322596598 0  0.6210028614493155 0.1072970410408442 0  1.1953125 0.01353164693413185 0  1.258193991486058 0.01269648635163345 0  1.3201967268638 0.01407907077719561 0  1.383538555392096 0.01434101079053473 0  1.445312500000001 0.01303671693628424 0  1.508925448095738 0.01398525724792267 0  0.9939176689634008 0.1034638089837981 0  1.120967497222226 0.2796788492172345 0  1.572835902117391 0.01424132418857359 0  1.637573277451887 0.01212536916586023 0  1.709730776795181 0.01466855431023635 0  1.005631976950563 0.07074019818158772 0  1.784944696816299 0.01454708406461822 0  0.5805605730631225 0.1101465090472147 0  1.855621181165637 0.01550931272897607 0  0.5366111276616774 0.1096761308243709 0  1.935200147913231 0.01760344159641829 0  1.214922267975168 0.2799787705802257 0  1.31178773425331 0.2792
[...]
<PointData  Scalars="pressure"> 
<DataArray  type="Float64"  Name="pressure"  format="ascii">-4.9972675029363988e-03  -7.1744830278036109e-01  -5.3998454879023883e-02  -3.6511649636356239e-02  3.4992829935076998e-02  0.0000000000000000e+00  0.0000000000000000e+00  -4.9390289952708361e-03  -1.0923364478828603e-02  -1.6754478148429442e-02  -2.2492384094033712e-02  -2.8138666421684284e-02  -3.3694992656465195e-02  -3.9162933911918017e-02  -4.4543864271891852e-02  -4.9839612894596215e-02  -5.5051551974582440e-02  -6.0181187905563378e-02  -6.5230309098516417e-02  -7.0200388623482199e-02  -7.5092780046025584e-02  -7.9909397368154542e-02  -8.4651770108940247e-02  -8.9320879719195570e-02  -9.3919340240884719e-02  -9.8448269024136004e-02  -1.0290930623101630e-01  -1.0730473076659192e-01  -1.1163583412190096e-01  -1.1590368542973560e-01  -1.2011146428795712e-01  -1.2426010579495284e-01  -1.2835248941361094e-01  -1.3239006867682346e-01  -1.3637379876685199e-01  -1.4030688859705504e-01  -1.4419177612824843e-01  -1.4802995013058073e-01  -1.5182372489329402e-01  -1.5557607159674905e-01  -1.5928841393595486e-01  -1.6296429122792111e-01  -1.6660557895879632e-01  -1.7021568324430969e-01  -1.7379726086297378e-01  -1.7734932639985174e-01  -1.8088144919537130e-01  -1.8439276413192612e-01  -1.8788624882473093e-01  -1.9136751691217196e-01  -1.9483937136307192e-01  -1.9829925443024365e-01  -2.0176022601056884e-01  -2.0522059489234454e-01  -2.0868477039761846e-01  -2.1215743777771184e-01  -2.1564232333666170e-01  -2.1914362022909378e-01  -2.2266694380731372e-01  -2.2621609559922570e-01  -2.2979504525982222e-01  -2.3340792346940520e-01  -2.3706514863588546e-01  -2.4076590994271072e-01  -2.4451829285342072e-01  -2.4832436067062283e-01  -2.5219964865051381e-01  -2.5614640891874230e-01  -2.6016203818455486e-01  -2.6426131558473925e-01  -2.6845785049150750e-01  -2.7274594542407288e-01  -2.7714505526553068e-01  -2.8166223959100423e-01  -2.8629769184299342e-01  -2.9106877190498753e-01  -2.9598537740878916e-01  -3.0105816832723237e-01  -3.0630987409440813e-01  -3.1174348688918369e-01  -3.1736759672844528e-01  -3.2319073046796387e-01  -3.2926888519808778e-01  -3.3559419971291049e-01  -3.4218443065971399e-01  -3.4907751446121160e-01  -3.5629174636076705e-01  -3.6386015350911527e-01  -3.7181646067141477e-01  -3.8022412922725662e-01  -3.8911820700186073e-01  -3.9854011564372344e-01  -4.0858791469467276e-01  -4.1934131084797793e-01  -4.3090147701932408e-01  -4.4340491162976847e-01  -4.5701633833171418e-01  -4.7195204087696324e-01  -4.8850722986180312e-01  -5.0708860002584544e-01  -5.2827036461653376e-01  -5.5282717289605532e-01  -5.8232969575633708e-01  -6.1903946420724310e-01  -6.6451701761049453e-01  -7.5584262560532700e-01  -1.4878095353163867e+00  -1.4065618082062483e+00  -1.0289728469365629e+00  -6.9204836622494725e-01  -1.2940516396953847e-01  -8.0604580805809081e-02  -6.8676549028887021e-02  -5.7901229974669469e-02  -5.0931143122072371e-02  -4.5930063756569245e-02  -4.2224969575406210e-02  -3.9292950153937252e-02  -3.7133885116333358e-02  -3.5921037099241430e-02  -3.5965358170303705e-02  -3.7184891767551818e-02  -3.7122995977890365e-02  -3.5782338442623234e-02  -3.3345053627709530e-02  -2.9933205614459467e-02  -2.5689314611080042e-02  -2.0722333727333845e-02  -1.5167098056205301e-02  -9.2738815881817632e-03  -3.2590161569225509e-03  2.6953105431838753e-03  8.4154892115404362e-03  1.3768398433179846e-02  1.8648283197041871e-02  2.2985736875788983e-02  2.6744948240756843e-02  2.9915759811129435e-02  3.2511281607700636e-02  3.4575859549604702e-02  3.6133580118587458e-02  3.7236052509282441e-02  3.7983484700744266e-02  3.8369685032667994e-02  3.8500659366844846e-02  3.8407813381041725e-02  3.8166723437723621e-02  3.7764248609687912e-02  3.7284854393431481e-02  3.6744376451612125e-02  3.6168333767803700e-02  3.5579333353065838e-02  3.4410738558011557e-02  3.3859681058376154e-02  3.3329242666795739e-02  3.2835681787010219e-02  3.2393889735643833e-02  3.1970595679778897e-02  3.1607275089645781e-02  3.1288267356451314e-02  3.1009545760908728e-02  3.0762275699600668e-02  3.0561725679809488e-02  3.0399470388098409e-02  3.0271827916340203e-02  3.0180982490028881e-02  3.0126257141941861e-02  3.0105086854040331e-02  3.0119764849854964e-02  3.0172659727966539e-02  3.0254234547251770e-02  3.0376324068278521e-02  3.0530599856268697e-02  3.0716952586247237e-02  3.0935745798056389e-02  3.1180976658918225e-02  3.1452123712184747e-02  3.1736608947721311e-02  3.2038050806116367e-02  3.2342421999492020e-02  3.2642921309406117e-02  3.2931138925022120e-02  3.3199953574895948e-02  3.3440270224307213e-02  3.3646357017274579e-02  3.3811663472901168e-02  3.3930322922309158e-02  3.4000145689662122e-02  3.4017844180803850e-02  3.3982462358187721e-02  3.3892892457825244e-02  3.3748545913447288e-02  3.3548260200408811e-02  3.3290054773325105e-02  3.2970514597315356e-02  3.2585030816652212e-02  3.2127457658006099e-02  3.1589886349414231e-02  3.0965927507007478e-02  3.0241359994471716e-02  2.9417460807642782e-02  2.8480904354756129e-02  2.7433955994131412e-02  2.6274961694693545e-02  2.5004357910587215e-02  2.3640034932350337e-02  2.2184372867423450e-02  2.0648164774565405e-02  1.9064557132432630e-02  1.7426006984030872e-02  1.5768584584498358e-02  1.4095037232263215e-02  1.2416075975386567e-02  1.0725424547474275e-02  9.0302722433592449e-03  7.3169750568368597e-03  5.5684232555393183e-03  3.7810179093545138e-03  1.8955885997097568e-03  0.0000000000000000e+00  0.0000000000000000e+00  0.0000000000000000e+00  0.0000000000000000e+00  0.0000000000000000e+00  0.0000000000000000e+00  0.0000000000000000e+00  0.0000000000000000e+00  0.0000000000000000e+00  1.5284298731693842e-03  2.9315912231655033e-03  4.3674082322725776e-03  5.7887995612316131e-03  7.1764744973955383e-03  8.5093130725733147e-03  9.7774919005337111e-03  1.0979185579731597e-02  1.2120260953237774e-02  1.3214481005853602e-02  1.4279561157029171e-02  1.5335769328319395e-02  1.6402367353572641e-02  1.7496215889760084e-02  1.8627740104790978e-02  1.9803559205624766e-02  2.1026076303430504e-02  2.2285461265479339e-02  2.3574008868587609e-02  2.4882002406523496e-02  2.6198754634966386e-02  2.7514308576343825e-02  2.8825484769271336e-02  3.0124922165017998e-02  3.1420562183575564e-02  3.2705870902318301e-02  3.3996028938227028e-02  3.5289880853943557e-02  3.6595449937526746e-02  3.7920488876858151e-02  3.9262660004631036e-02  4.0619083560472023e-02  4.2007000394708838e-02  4.3366777722995686e-02  4.4719051189140116e-02  4.6014144662388345e-02  4.7235216231125310e-02  4.8319711619494284e-02  4.9210298276638503e-02  4.9889028777154072e-02  5.0236139977855379e-02  5.0224362569721626e-02  4.9780856428031324e-02  4.8832647207510536e-02  4.7319689672355801e-02  4.5210512232181789e-02  4.2444769170071076e-02  3.9003484578847038e-02  3.4894581626357363e-02  3.0150585056849730e-02  2.4794633573918121e-02  1.8884329210681991e-02  1.2493424262137955e-02  5.6920236928434467e-03  -1.4324424911730256e-03  -8.7928408222165584e-03  -1.6321156365122911e-02  -2.3982056198307625e-02  -3.1656365526316621e-02  -3.9347977020742324e-02  -4.7043595230028185e-02  -5.4710776567509618e-02  -6.2374009455577223e-02  -7.0044305805583365e-02  -7.7752691039269600e-02  -8.5542226741870966e-02  -9.3461043457457163e-02  -1.0156611510578624e-01  -1.0990544699605764e-01  -1.1853929084051587e-01  -1.2754346246601952e-01  -1.3692394812774339e-01  -1.4665160470260288e-01  -1.5672510375218476e-01  -1.6686894394619178e-01  -1.7685643484869440e-01  -1.8632549574061447e-01  -1.9488251819047173e-01  -2.0226359879309194e-01  -2.0833608724887165e-01  -2.1264592846140415e-01  -2.1544013223424835e-01  -2.1668774618906400e-01  -2.1682040315837917e-01  -2.1575961224394827e-01  -2.1362373563595641e-01  -2.1073493647324446e-01  -2.0717161849313895e-01  -2.0299582563954796e-01  -1.9838222003912553e-01  -1.9336491934518918e-01  -1.8809026729704972e-01  -1.8257959414501593e-01  -1.7685302597357624e-01  -1.7100605338842662e-01  -1.6504882528809087e-01  -1.5899180970212567e-01  -1.5286463181567067e-01  -1.4669420715834275e-01  -1.4049051603955215e-01  -1.3425865637700243e-01  -1.2801205498755838e-01  -1.2175293714835561e-01  -1.1549535612293817e-01  -1.0923693243828654e-01  -1.0298426303755230e-01  -9.6740250646136311e-02  -9.0506167056009432e-02  -8.4285154475760002e-02  -7.8078136333493753e-02  -7.1885952263642680e-02  -6.5709874710345617e-02  -5.9550660215197039e-02  -5.3408817052109300e-02  -4.7284749431365521e-02  -4.1179138376819781e-02  -3.5091846699452492e-02  -2.9023248447816723e-02  -2.2973593859515310e-02  -1.6942875167505200e-02  -1.0931334349158562e-02  -4.9392553531954105e-03  -4.9416809622898948e-03  -4.9475953801927141e-03  -4.9568727822983183e-03  -4.9681381977371613e-03  -4.9794152321641326e-03  -4.9887120565381407e-03  -4.9946659746053371e-03  -4.9970830150431250e-03  -1.2252406525704243e-02  -7.8550983802279109e-02  -8.1915374475857239e-01  -5.2061152751312756e-01  -4.3893328494786371e-01  -3.8571386009276698e-01  -3.4676541884852236e-01  -3.1542546527941334e-01  -2.8910175343989647e-01  -2.7127295172415794e-01  -2.5409347581657460e-01  -2.3907010641177143e-01  -2.2457179190474341e-01  -2.1050155036429519e-01  -1.9661749881132468e-01  1.0507684610926880e-02  2.7859105536516080e-02  3.6225993195281164e-02  3.8179148358403595e-02  3.6903086532267398e-02  3.4656968576980272e-02  -5.4558177712848555e-01  -1.2190738076955754e-01  3.2655567964638262e-02  3.1239620511041351e-02  3.0389677532714938e-02  -4.8337156512047640e-02  3.0142746575169049e-02  -1.8272564517056927e-01  3.0430589646466888e-02  -1.6827263244700458e-01  3.1254534742016338e-02  -8.9345496226260535e-02  -5.8564236640107216e-02  3.2467510248601068e-02  -2.8105925686090823e-02  -1.5371466482006887e-01  8.6842833666329038e-03  3.3420927109070173e-02  -1.3835229268462396e-01  -2.7489661414840671e-02  3.3869784034798726e-02  3.6549466018815632e-02  -1.5119009431393043e-01  -1.2263076321441517e-01  3.3489741400715138e-02  4.9791929842226315e-02  -1.0492181449287562e-01  4.9484081899328847e-02  3.2194294304281869e-02  4.6539988992543496e-02  -8.7513258831974930e-02  -1.8011090274335539e-01  2.9758861607469277e-02  4.2682918090564639e-02  -2.0432292795940241e-01  3.8557927886777220e-02  2.5598565778692357e-02  -2.1556299057059194e-01  -6.7239423324621933e-02  -5.3194441797772392e-02  4.5938718933726870e-02  2.1398405190951323e-02  1.6408921066164636e-02  3.4678546751219841e-02  -2.1452776693309206e-01  2.9481007327793601e-02  -6.0417548051535774e-01  -2.0089299343279857e-01  2.5600376728384878e-02  -3.5723925536840957e-02  -1.8531470000583225e-01  1.1583285128702383e-02  2.0449811306523125e-02  -1.6789039722172722e-01  -1.4342057394186192e-01  1.6917808437924505e-02  -1.1236113916544406e-01  1.3692968289638353e-02  -9.3565508439165501e-02  -7.4875133721450035e-02  1.0325469344505655e-02  -4.3338105900964638e-02  1.3769463931756446e-03  -1.0543528957538840e-02  -3.8704359651608330e-02  6.5332198259437368e-03  6.3808692126564011e-03  -2.5547396803760031e-02  -6.0346300792729193e-02  -3.4192762164059087e-02  -1.0519540341716792e-01  -2.0875368471372194e-01  -1.5638223730528902e-01  -1.3145047398327175e-01  -2.5264198896924894e-02  2.0900340261918532e-02  -1.2589423810940213e-02  -4.3184902169228392e-02  -7.3712958702700351e-02  -7.7206967171703639e-02  3.2162598690133486e-02  -9.6476222695912217e-02  -6.2666778403738216e-02  2.2976744620617291e-02  2.7898907533974716e-02  -1.1434092467281684e-01  3.1081550354487269e-02  3.2971427149432242e-02  -1.3012512789221053e-01  3.3788215752305187e-02  3.3743770908809631e-02  3.2941050711352698e-02  3.1858070441178665e-02  3.3610258751632115e-02  -1.4612537668408174e-01  3.0780319085655976e-02  3.0225620234418566e-02  -1.6113014962669170e-01  3.0189259437237357e-02  3.0721737448375488e-02  3.1840247552107313e-02  1.5207703070266728e-03  -1.7599765549157831e-01  -1.8916539734709203e-01  -1.0222758714597982e-02  -2.0319032598266867e-01  -2.1749410708557504e-01  -2.3174058559113866e-01  -2.4676007458024163e-01  -2.6254673420648733e-01  -2.7951703412255696e-01  -3.8757895751913085e-04  -3.0413710749149969e-01  -3.3302581897692668e-01  -3.6876497845422845e-01  2.0226005766811699e-02  -4.1569828915832929e-01  3.7801500787957971e-02  3.3242055789528317e-02  3.7818056267730556e-02  3.5816199182867978e-02  -4.8278851300573133e-01  -1.1789194360622379e+00  1.1889728899013043e-03  -1.0684185873902616e-02  3.5235702223971360e-03  -3.6538311620831973e-02  -9.9809837264148663e-03  1.5825194675612407e-03  -1.4034778670853188e-02  -3.5821112038162448e-02  -3.5268372148867987e-02  -3.3642120964566119e-02  -3.5364289246581665e-02  -3.3635915449518043e-02  -3.5575866749116662e-02  -3.3291298417652500e-02  -3.5344228789731029e-02  -3.2674130379076981e-02  -3.4567759899185077e-02  -3.1811979457209670e-02  -3.3798625666394695e-02  -3.0904513290241180e-02  -3.4156907097170668e-02  -3.1157453068191471e-02  -3.6908922884633835e-02  -3.3748086436088079e-02  -4.2736593361728026e-02  -3.9367015067963376e-02  -5.1583093384115195e-02  -4.6926099300510511e-02  -5.7001740136124683e-02  -3.3533607281495674e-02  -4.2456328106533117e-02  -6.7303386980993946e-02  -7.4636574802325814e-02  -3.0231767197268597e-02  -3.8219852856562229e-02  -2.5387476537101161e-02  -3.4651772537992440e-02  -2.0876611552351747e-02  -3.1913308197534809e-02  -1.6732892558882440e-02  -2.7426055504724135e-02  -1.2530401336279886e-02  -2.5990193661754726e-02  -9.6482392486781348e-03  -2.1262229548740214e-02  -6.2710461256114281e-03  -1.8472982428746624e-02  -3.4041567923285836e-03  -1.5781008287370422e-02  -9.1653828087096163e-04  -1.3448673590244185e-02  1.2883451203371582e-03  -1.0818988048333103e-02  3.2843191347407363e-03  -8.6546191423728103e-03  5.0514489306991281e-03  -6.2232505345338248e-03  5.9523280924883753e-03  -3.9159399793688458e-03  9.1421717494810009e-03  -8.5467364177650759e-02  -9.6550251550227117e-02  -2.0778771037277812e-03  9.6733203831701215e-03  7.6956323176187382e-04  1.1399527202670297e-02  2.7871951933322418e-03  1.2952752301736262e-02  5.2674545783820735e-03  1.4607082724767070e-02  -5.1907054371350458e-02  7.9148285272796839e-03  1.6317620078672251e-02  9.6457957015382428e-03  1.7937235411704687e-02  1.3330836121332238e-02  1.9855462490496623e-02  -1.0485684325863515e-01  -1.2087233461251415e-01  -3.6508969579247756e-02  1.5991663045489966e-02  2.1696925557305319e-02  1.8795281857520902e-02  2.3511246660270674e-02  2.1473377782088521e-02  2.5315534923490465e-02  -8.9569160368240419e-02  2.4129001578282995e-02  2.7071004211407228e-02  -4.4524154279565811e-02  2.6673822354107223e-02  2.8754913757140788e-02  2.9075034657222030e-02  3.0366618937076650e-02  3.1342576965693855e-02  3.1838823812275388e-02  -2.7425844529266413e-02  -3.4587356873172423e-02  3.3408145233291948e-02  3.3232000773704237e-02  -1.2420013125037595e-01  -1.4113505765871523e-01  -1.1094294182510739e-01  -2.5481551026989506e-02  3.5275724838018489e-02  3.4464031095712930e-02  3.7002101345387214e-02  3.5568818619404155e-02  3.8463590589574263e-02  3.6546371343623194e-02  2.5176676033773375e-02  3.2598327224109734e-02  2.8139771626557588e-02  2.2316061508228586e-02  3.9720627993290035e-02  3.7392519479817123e-02  3.4498813486860416e-02  3.5003953173262055e-02  3.8073979988886543e-02  3.5430086384426997e-02  3.8581576520687597e-02  3.5787634863440561e-02  3.9005217759439596e-02  3.6142056775029040e-02  3.9314598589055262e-02  3.6399968074682917e-02  3.9501155799851216e-02  3.6609944974954213e-02  3.9670363040542590e-02  3.6792150050578731e-02  3.9655318130326307e-02  3.6770999313089053e-02  3.9567797984920806e-02  3.6858848629991635e-02  3.9438363940096768e-02  3.6866093725647996e-02  3.9312654139977671e-02  3.6856233967444883e-02  1.9098973372855516e-02  -1.7547570550609234e-02  3.9045848997960132e-02  3.6766494007180552e-02  3.8668680843065073e-02  3.6643888796375694e-02  -9.4231099315493731e-03  1.3929928417862714e-02  3.8239932437933354e-02  3.6441687088327318e-02  6.7133544442546525e-03  -7.1807885175825537e-03  -1.4009607539192862e-01  -1.5820734482437598e-01  -1.6614320417293774e-01  -1.8157731934272964e-01  -1.9788613196060262e-01  -2.0788043760558098e-01  -2.3652386796391742e-01  -2.3723776124795851e-01  -2.6970390849325160e-01  -2.6429366772531748e-01  -3.0314081696283074e-01  -2.8829494829238883e-01  -3.2670833564190294e-01  -3.0633415303521622e-01  -3.4219147551915258e-01  -3.1884376651145291e-01  -3.4967714006108436e-01  -3.2544513735169811e-01  -3.5123018421131774e-01  -3.2737525682017776e-01  -3.4846326914333803e-01  -3.2605033711507714e-01  -3.4325836889732725e-01  -3.2271397524961232e-01  -3.3661647234833164e-01  -3.1815825878684501e-01  -3.2832616306164697e-01  -3.1144117136017363e-01  -3.0003007022231193e-01  -2.9623970314744041e-01  -3.0590745646800732e-01  -2.9207388695277176e-01  -3.0110615965136045e-01  -2.8784249497934439e-01  -2.9470528391135159e-01  -2.8293688646703968e-01  -2.8114117337541383e-01  -2.8286308774436125e-01  -3.0500643585720155e-01  -2.8864280606943099e-01  -2.7792505506345583e-01  -2.7097493159922631e-01  -2.6722500533635329e-01  -2.7288242668773088e-01  -2.6349088251819475e-01  -2.6774851216663770e-01  -2.5932570771471175e-01  -2.6261727361416076e-01  -2.5473252476183400e-01  -2.5690618094636763e-01  -2.1753710961236405e-01  -3.5051929846796231e-01  -2.5757904656923042e-01  -2.5024021661564072e-01  -2.4689780693312108e-01  -2.4290558461294737e-01  -2.4576824952759405e-01  -2.3908683403579484e-01  -2.4117444472646377e-01  -2.3504290530287253e-01  -3.8054024236530459e-01  -2.3584115447918355e-01  -2.3660382390745244e-01  -2.3101624172772031e-01  -3.7329065459799610e-01  -2.3217867905065398e-01  -2.2679586914340019e-01  -2.2565683469307796e-01  -2.2140945830266828e-01  -2.2249765654652487e-01  -2.1733820079601365e-01  -2.1593998409927403e-01  -2.1219905906256434e-01  -2.1324889198367533e-01  -2.0836855251034872e-01  -2.0909120829497602e-01  -2.0436477979444728e-01  -2.0355977370960565e-01  -1.9977502065604194e-01  -2.0026218425305714e-01  -1.9588040999074621e-01  -1.9614407914229284e-01  -1.9190473648493189e-01  -1.8921091974199147e-01  -3.1452983290267067e-01  -3.5474205857625452e-01  -1.9205893511313782e-01  -1.8790428167114231e-01  -1.8769384703488778e-01  -1.8366735752554555e-01  -1.8369781552842884e-01  -1.7959604620473821e-01  -1.8344169528579857e-01  3.7834642402613618e-02  3.6204174723324566e-02  3.7327282886899890e-02  3.5889247362884957e-02  3.6753293874835676e-02  3.5502469215967759e-02  -2.7675698572954932e-01  9.2510355047343961e-03  -3.7310069433693402e-02  -1.7942711236735900e-01  -1.7548983889405984e-01  -2.9925382703501785e-01  3.3869659529535558e-02  3.4900624428260370e-02  3.2727064733527135e-02  3.6112569535184123e-02  3.5058313205051178e-02  3.4544818276625158e-02  3.4262426903259299e-02  3.4547742253454701e-02  3.3903870109764346e-02  3.3972660573008899e-02  3.3474073122536974e-02  3.3336317716230010e-02  3.2986207724624662e-02  3.2641138692300078e-02  3.2423600903316800e-02  3.1878678409853319e-02  3.1781229910003143e-02  3.1044681487650001e-02  3.1071573478400692e-02  3.0143135484400126e-02  3.0292984223731435e-02  2.9197400591646758e-02  2.9447111815120833e-02  2.8192843491935668e-02  2.8527306671794952e-02  2.7091775326474450e-02  2.7534299942340981e-02  2.5932168533208913e-02  2.6465747919717921e-02  2.4750338963697410e-02  2.5341244304754637e-02  2.3595276083174115e-02  2.4172226301982267e-02  2.2162107090154599e-02  2.2914643265647423e-02  3.4973240176653091e-02  -1.9903845544826751e-01  -2.4782940450907334e-01  -1.7506883130951156e-01  -1.7122937547890629e-01  -1.7159644895634454e-01  -1.6726275829927986e-01  -1.6765953151683916e-01  -1.6329221324556256e-01  -1.6290951617002108e-01  -1.5897373368676440e-01  -1.5837915076901204e-01  -1.5452449399856277e-01  -1.5502694402745851e-01  -1.5062714168042673e-01  -1.5019186215368022e-01  -1.4622643598699200e-01  -1.4573387044405708e-