<?xml version="1.0"?>
<VTKFile type="UnstructuredGrid"  version="0.1"  >
<UnstructuredGrid>
<Piece  NumberOfPoints="2886" NumberOfCells="5412">
<Points>
<DataArray  type="Float64"  NumberOfComponents="3"  format="ascii">0 0.1 0  0.98 0.1 0  1 0.1 0  1 0 0  1.5 0 0  3 0 0  3 0.3 0  0 0.3 0  0.01975375321854102 0.1 0  0.03918897458218897 0.1 0  0.05831079002627837 0.1 0  0.07712425666319796 0.1 0  0.0956343475259058 0.1 0  0.1138459546796227 0.1 0  0.1317638870668193 0.1 0  0.1493928840275937 0.1 0  0.1667376092280033 0.1 0  0.1838026357802664 0.1 0  0.2005924801287244 0.1 0  0.2171115811543574 0.1 0  0.2333643037107681 0.1 0  0.2493549444060462 0.1 0  0.2650877293306821 0.1 0  0.2805668058011438 0.1 0  0.2957962848620976 0.1 0  0.3107801766802674 0.1 0  0.3255224447361181 0.1 0  0.3400269848175519 0.1 0  0.3542976327080778 0.1 0  0.3683381609158136 0.1 0  0.3821522744564845 0.1 0  0.3957436316838916 0.1 0  0.4091158196437086 0.1 0  0.4222723742184605 0.1 0  0.4352167733293057 0.1 0  0.4479524348643424 0.1 0  0.4604827295467524 0.1 0  0.4728109659990664 0.1 0  0.4849404035409129 0.1 0  0.4968742471455402 0.1 0  0.508615651843175 0.1 0  0.520167721130924 0.1 0  0.5315335063628542 0.1 0  0.5427160117228604 0.1 0  0.5537181940261912 0.1 0  0.564542961924507 0.1 0  0.575193173270606 0.1 0  0.5856716438765114 0.1 0  0.5959811458006617 0.1 0  0.6061243988680743 0.1 0  0.6161040893285659 0.1 0  0.6259228503970299 0.1 0  0.6355832809287655 0.1 0  0.6450879281079505 0.1 0  0.6544393102991295 0.1 0  0.663639896558931 0.1 0  0.6726921201956305 0.1 0  0.6815983691630338 0.1 0  0.6903610031396646 0.1 0  0.6989823343332418 0.1 0  0.7074646404270378 0.1 0  0.7158101645005117 0.1 0  0.7240211149852543 0.1 0  0.7320996585612525 0.1 0  0.7400479319727645 0.1 0  0.7478680336617921 0.1 0  0.755562036504958 0.1 0  0.7631319665092091 0.1 0  0.7705798279317605 0.1 0  0.777907588066146 0.1 0  0.7851171851013118 0.1 0  0.7922105226004981 0.1 0  0.7991894774550319 0.1 0  0.8060558928136696 0.1 0  0.812811583201334 0.1 0  0.8194583352091183 0.1 0  0.8259979035038147 0.1 0  0.8324320194413813 0.1 0  0.8387623808293405 0.1 0  0.8449906627004957 0.1 0  0.8511185094880469 0.1 0  0.8571475426008311 0.1 0  0.8630793533568246 0.1 0  0.8689155114558531 0.1 0  0.8746575581239063 0.1 0  0.8803070109173519 0.1 0  0.885865363938836 0.1 0  0.8913340851680313 0.1 0  0.8967146206523592 0.1 0  0.9020083930695622 0.1 0  0.9072167995950768 0.1 0  0.9123412183131177 0.1 0  0.9173830029719022 0.1 0  0.9223434865647732 0.1 0  0.9272239785872722 0.1 0  0.9320257720706087 0.1 0  0.9367501330378739 0.1 0  0.9413983102716995 0.1 0  0.9459715351562933 0.1 0  0.9504710127113115 0.1 0  0.9548979346500661 0.1 0  0.9592534708344373 0.1 0  0.9635387708980176 0.1 0  0.9677549682252325 0.1 0  0.971903177251235 0.1 0  0.9759844952956497 0.1 0  0.9840000000000086 0.1 0  0.987999999999974 0.1 0  0.9919999999999393 0.1 0  0.9959999999999913 0.1 0  1 0.09591793123533533 0  1 0.09133596463859224 0  1 0.08619288104391448 0  1 0.08041996484521211 0  1 0.07394008421771697 0  1 0.06666666567302955 0  1 0.05850252932209174 0  1 0.04933859630113544 0  1 0.03905242821848202 0  1 0.02750659386753798 0  1 0.01454683679239736 0  1.015625 0 0  1.03125 0 0  1.046875 0 0  1.0625 0 0  1.078125 0 0  1.09375 0 0  1.109375 0 0  1.125 0 0  1.140625 0 0  1.15625 0 0  1.171875 0 0  1.1875 0 0  1.203125 0 0  1.21875 0 0  1.234375 0 0  1.25 0 0  1.265625 0 0  1.28125 0 0  1.296875 0 0  1.3125 0 0  1.328125 0 0  1.34375 0 0  1.359375 0 0  1.375 0 0  1.390625 0 0  1.40625 0 0  1.421875 0 0  1.4375 0 0  1.453125 0 0  1.46875 0 0  1.484375 0 0  1.515920751924515 0 0  1.531989369316721 0 0  1.54820720925872 0 0  1.564575665560501 0 0  1.581096138674279 0 0  1.597770029901263 0 0  1.614598783332311 0 0  1.631583831055205 0 0  1.64872661129721 0 0  1.666028606716533 0 0  1.683491276608443 0 0  1.701116134125304 0 0  1.718904673324128 0 0  1.736858414799339 0 0  1.754978895814663 0 0  1.773267661782904 0 0  1.791726281103402 0 0  1.810356325314689 0 0  1.8291593848892 0 0  1.848137076690385 0 0  1.867291007717254 0 0  1.886622833871288 0 0  1.90613418642363 0 0  1.925826753299799 0 0  1.945702199101513 0 0  1.96576223584749 0 0  1.986008569283268 0 0  2.006442931928877 0 0  2.02706707547783 0 0  2.047882750887917 0 0  2.06889175187935 0 0  2.090095860038271 0 0  2.111496891648636 0 0  2.133096679109554 0 0  2.154897066851056 0 0  2.176899916687499 0 0  2.199107102752146 0 0  2.22152053937028 0 0  2.244142122958061 0 0  2.266973806444078 0 0  2.290017523268154 0 0  2.313275249499252 0 0  2.336748971745516 0 0  2.360440702338606 0 0  2.384352453384031 0 0  2.408486280477412 0 0  2.432844240041185 0 0  2.457428414757088 0 0  2.482240901796653 0 0  2.507283830121838 0 0  2.532559332080812 0 0  2.558069568787417 0 0  2.583816724966441 0 0  2.60980299606584 0 0  2.636030600971886 0 0  2.662501790984011 0 0  2.689218818279327 0 0  2.716183964547616 0 0  2.743399548861297 0 0  2.77086788244719 0 0  2.798591312896326 0 0  2.826572223178268 0 0  2.854812990138617 0 0  2.883316031690714 0 0  2.912083780657189 0 0  2.941118704633482 0 0  2.970423276998917 0 0  3 0.02999999999994495 0  3 0.05999999999987042 0  3 0.089999999999783 0  3 0.119999999999701 0  3 0.149999999999619 0  3 0.179999999999692 0  3 0.2099999999997737 0  3 0.2399999999998511 0  3 0.2699999999999185 0  2.970138294777171 0.3 0  2.940375666438236 0.3 0  2.910711782853056 0.3 0  2.881146331305122 0.3 0  2.851678975030285 0.3 0  2.822309388626621 0.3 0  2.793037250095074 0.3 0  2.76386223529133 0.3 0  2.734784017903872 0.3 0  2.705802289276642 0.3 0  2.676916713794697 0.3 0  2.648126987654635 0.3 0  2.619432780406184 0.3 0  2.590833779385199 0.3 0  2.562329669847737 0.3 0  2.533920134950189 0.3 0  2.505604855727852 0.3 0  2.477383539822502 0.3 0  2.449255847639465 0.3 0  2.421221492569094 0.3 0  2.393280152486815 0.3 0  2.36543151914496 0.3 0  2.337675285481809 0.3 0  2.310011142385583 0.3 0  2.282438797441587 0.3 0  2.254957931061538 0.3 0  2.227568248063605 0.3 0  2.200269436651085 0.3 0  2.173061204949961 0.3 0  2.145943251515011 0.3 0  2.118915272469994 0.3 0  2.091976978084957 0.3 0  2.065128060700849 0.3 0  2.038368218849433 0.3 0  2.01169717777258 0.3 0  1.985114624111908 0.3 0  1.958620267850966 0.3 0  1.93221382054972 0.3 0  1.905894991850698 0.3 0  1.879663489459713 0.3 0  1.853519019126419 0.3 0  1.827461291053897 0.3 0  1.801490031354372 0.3 0  1.775604937580312 0.3 0  1.74980572560258 0.3 0  1.724092118631866 0.3 0  1.698463829173586 0.3 0  1.672920575782554 0.3 0  1.647462076974085 0.3 0  1.622088043536933 0.3 0  1.5967981978949 0.3 0  1.571592267767068 0.3 0  1.546469970305736 0.3 0  1.521431023814044 0.3 0  1.496475156230927 0.3 0  1.471602093687753 0.3 0  1.446811560490646 0.3 0  1.422103279101731 0.3 0  1.397476971708191 0.3 0  1.37293238939876 0.3 0  1.348469231419202 0.3 0  1.324087248732772 0.3 0  1.299786165921677 0.3 0  1.275565710847046 0.3 0  1.251425617644257 0.3 0  1.227365618676339 0.3 0  1.203385446174014 0.3 0  1.179484853067473 0.3 0  1.155663548773374 0.3 0  1.131921292279077 0.3 0  1.108257802159295 0.3 0  1.084672829009693 0.3 0  1.061166115303374 0.3 0  1.037737392995421 0.3 0  1.01438640299116 0.3 0  0.991112899770314 0.3 0  0.9679166155523955 0.3 0  0.944797284182564 0.3 0  0.921754678526042 0.3 0  0.8987885143602501 0.3 0  0.8758985548820624 0.3 0  0.8530845484099929 0.3 0  0.8303462351786988 0.3 0  0.8076833651172373 0.3 0  0.7850956864865304 0.3 0  0.7625829601354557 0.3 0  0.7401449314598274 0.3 0  0.717781337993959 0.3 0  0.6954919649675473 0.3 0  0.6732765357561226 0.3 0  0.6511348120768439 0.3 0  0.6290665642016573 0.3 0  0.6070715355430467 0.3 0  0.5851494825775325 0.3 0  0.5633001690203812 0.3 0  0.5415233562273221 0.3 0  0.5198187909431873 0.3 0  0.4981862401387795 0.3 0  0.4766254686134248 0.3 0  0.4551362360485234 0.3 0  0.4337182975262159 0.3 0  0.4123714223228037 0.3 0  0.3910953802377493 0.3 0  0.3698899313205595 0.3 0  0.3487548463710963 0.3 0  0.3276898864081783 0.3 0  0.3066948129116018 0.3 0  0.2857694003037476 0.3 0  0.2649134227095047 0.3 0  0.2441266417321288 0.3 0  0.2234088223399122 0.3 0  0.2027597568977288 0.3 0  0.1821792020676698 0.3 0  0.1616669305402443 0.3 0  0.1412227158799362 0.3 0  0.12084633013886 0.3 0  0.1005375673448281 0.3 0  0.08029618164595353 0.3 0  0.06012194778526769 0.3 0  0.04001466495039718 0.3 0  0.01997408913631205 0.3 0  0 0.2800000000000553 0  0 0.2600000000001105 0  0 0.2400000000001658 0  0 0.2200000000002211 0  0 0.2000000000002764 0  0 0.1800000000002244 0  0 0.1600000000001691 0  0 0.140000000000115 0  0 0.1200000000000564 0  1.13346801534201 0.01255848438672509 0  1.003577645172735 0.09351054173913405 0  0.9777559943702486 0.1034978156913738 0  0.9524533750752109 0.1040889939962738 0  0.9296242411226409 0.1041520033606139 0  0.9046110503652111 0.104409422380137 0  0.8777709649694228 0.1053360318797398 0  0.8483859145648608 0.1061007868330701 0  0.8162363822948977 0.1052777104363292 0  0.7893110024210437 0.1060761643971561 0  0.7587949382612539 0.1067265405088633 0  0.7280603867732535 0.1069398153264939 0  0.6947001989413015 0.1075609887579097 0  0.6590363283767549 0.1076715322596598 0  0.6210028614493155 0.1072970410408442 0  1.1953125 0.01353164693413185 0  1.258193991486058 0.01269648635163345 0  1.3201967268638 0.01407907077719561 0  1.383538555392096 0.01434101079053473 0  1.445312500000001 0.01303671693628424 0  1.508925448095738 0.01398525724792267 0  0.9939176689634008 0.1034638089837981 0  1.120967497222226 0.2796788492172345 0  1.572835902117391 0.01424132418857359 0  1.637573277451887 0.01212536916586023 0  1.709730776795181 0.01466855431023635 0  1.005631976950563 0.07074019818158772 0  1.784944696816299 0.01454708406461822 0  0.5805605730631225 0.1101465090472147 0  1.855621181165637 0.01550931272897607 0  0.5366111276616774 0.1096761308243709 0  1.935200147913231 0.01760344159641829 0  1.214922267975168 0.2799787705802257 0  1.31178773425331 0.2792
[...]
<PointData  Scalars="pressure"> 
<DataArray  type="Float64"  Name="pressure"  format="ascii">3.5953473115749243e-02  -8.7435273796457258e-01  -2.1406177687438081e-02  -6.5187834121685296e-03  3.0777527782928773e-02  0.0000000000000000e+00  0.0000000000000000e+00  3.6029073430491693e-02  3.0027387235204175e-02  2.4196125448612358e-02  1.8457846971435075e-02  1.2810957288987897e-02  7.2537390583416739e-03  1.7846070837125323e-03  -3.5977984854779804e-03  -8.8954039458561118e-03  -1.4109570916530714e-02  -1.9241844693938970e-02  -2.4294094142115679e-02  -2.9267838806538965e-02  -3.4164438732529279e-02  -3.8985942826138743e-02  -4.3733926911590768e-02  -4.8409337184481330e-02  -5.3015076575122499e-02  -5.7552244121444281e-02  -6.2022572546430260e-02  -6.6428583416529935e-02  -7.0771555485543411e-02  -7.5052620330425562e-02  -7.9275325970492624e-02  -8.3440604851047817e-02  -8.7551715230291829e-02  -9.1610082999600939e-02  -9.5616813307715876e-02  -9.9575428777003386e-02  -1.0348870467588901e-01  -1.0735821793456367e-01  -1.1118654894046857e-01  -1.1497708660525377e-01  -1.1873127781387846e-01  -1.2245325855264039e-01  -1.2614511298886188e-01  -1.2981066898613519e-01  -1.3345280208905913e-01  -1.3707057274671444e-01  -1.4067502339486621e-01  -1.4426467246095340e-01  -1.4784366324495327e-01  -1.5141787053824127e-01  -1.5499054684924826e-01  -1.5855929003033098e-01  -1.6213874359498343e-01  -1.6572708858539459e-01  -1.6932958987665989e-01  -1.7295181189651812e-01  -1.7659796464047112e-01  -1.8027318117540539e-01  -1.8398425012413969e-01  -1.8773551124809418e-01  -1.9153185638618681e-01  -1.9537843013378137e-01  -1.9928774945438477e-01  -2.0325896008105199e-01  -2.0730199650207892e-01  -2.1141908618382746e-01  -2.1563071998270719e-01  -2.1993796705248064e-01  -2.2433908037764322e-01  -2.2885238641628530e-01  -2.3349482764190463e-01  -2.3825965284478978e-01  -2.4317225045566432e-01  -2.4824054852721231e-01  -2.5346631024757638e-01  -2.5887185999172674e-01  -2.6447038707328868e-01  -2.7027605163503693e-01  -2.7631782060749788e-01  -2.8260260036420209e-01  -2.8913935399757673e-01  -2.9594401745719784e-01  -3.0308677005590096e-01  -3.1055999373807996e-01  -3.1838901610076420e-01  -3.2662405457283628e-01  -3.3529127070354081e-01  -3.4443655094963677e-01  -3.5410607078442263e-01  -3.6438590395911902e-01  -3.7532649200173207e-01  -3.8698515241583181e-01  -3.9949657181820036e-01  -4.1297151544545013e-01  -4.2754999217173351e-01  -4.4342086963713689e-01  -4.6081302596519397e-01  -4.8002545950723535e-01  -5.0146843196243929e-01  -5.2570620727908179e-01  -5.5353402984310829e-01  -5.8603986494549931e-01  -6.2538930471673448e-01  -6.7469363571656427e-01  -7.3801245778591062e-01  -8.5254539119646333e-01  -1.7972854284119180e+00  -1.6239857184369952e+00  -1.1285475183132219e+00  -6.6299891237399322e-01  -1.5200249297053497e-01  -6.7727897021931285e-02  -5.1221046751576481e-02  -3.5938204448098934e-02  -2.6372844607195165e-02  -1.9664206412802681e-02  -1.4714060748197857e-02  -1.0710312337593349e-02  -7.6198070896930734e-03  -5.7654645950810674e-03  -5.7414725284482774e-03  -7.4710254086849245e-03  -7.3880850120478393e-03  -5.5000146280622230e-03  -1.8238795672573097e-03  3.6925515888736843e-03  1.0990211839787642e-02  1.9943317478421201e-02  3.0265501181607174e-02  4.1321209886705290e-02  5.2466125625311791e-02  6.3109405697621232e-02  7.2681683318374851e-02  8.0790146813446526e-02  8.7157060823624760e-02  9.1617832247346917e-02  9.4186881685292975e-02  9.4971306724384974e-02  9.4141371895635970e-02  9.1966256412530339e-02  8.8642711696208937e-02  8.4384130597843554e-02  7.9597401367282064e-02  7.4287944043733081e-02  6.8809693816884385e-02  6.3279751417576219e-02  5.7828825572782100e-02  5.2527162351808959e-02  4.7494268880627334e-02  4.2764228292451363e-02  3.8393462052941710e-02  3.4394828515214478e-02  2.7484209634248299e-02  2.4556926739104951e-02  2.1998375077877108e-02  1.9774043630563811e-02  1.7889485783585821e-02  1.6358357839746245e-02  1.5066816883020664e-02  1.4066775813889683e-02  1.3345510171690882e-02  1.2858295696979471e-02  1.2560901321294804e-02  1.2457852923389426e-02  1.2530421104758228e-02  1.2747165288911984e-02  1.3094698148747233e-02  1.3557198054353991e-02  1.4108483343637747e-02  1.4742649085253823e-02  1.5443777890799412e-02  1.6190755322771602e-02  1.6980721239242092e-02  1.7794691908527220e-02  1.8620239628896813e-02  1.9456251081116399e-02  2.0281800627668621e-02  2.1102766696437427e-02  2.1893825590516565e-02  2.2660520856055705e-02  2.3391090875766612e-02  2.4083035021958268e-02  2.4731632239245929e-02  2.5329392547813790e-02  2.5872241549513772e-02  2.6356449646196548e-02  2.6779221681734192e-02  2.7136640509143880e-02  2.7426049546617759e-02  2.7645076300245843e-02  2.7791139609011944e-02  2.7863266131057073e-02  2.7860102474232980e-02  2.7780089431582417e-02  2.7622514640264811e-02  2.7386757805550114e-02  2.7071337445477930e-02  2.6676229909102261e-02  2.6203599869888711e-02  2.5651398702131352e-02  2.5016235460741023e-02  2.4313575399222770e-02  2.3525135201658491e-02  2.2671217094034073e-02  2.1733634982058936e-02  2.0732618431832595e-02  1.9659066882558033e-02  1.8506720975493423e-02  1.7299842635170284e-02  1.6015502253176103e-02  1.4674774989130340e-02  1.3270624646431676e-02  1.1804209069336389e-02  1.0276025402559903e-02  8.6938392757173952e-03  7.0595728134876540e-03  5.3654174180153722e-03  3.6365048789192642e-03  1.8477561820668810e-03  0.0000000000000000e+00  0.0000000000000000e+00  0.0000000000000000e+00  0.0000000000000000e+00  0.0000000000000000e+00  0.0000000000000000e+00  0.0000000000000000e+00  0.0000000000000000e+00  0.0000000000000000e+00  2.1087732368564992e-03  4.0642175446851331e-03  5.9987800526673735e-03  7.8839140465677901e-03  9.7234552458076526e-03  1.1518604516940315e-02  1.3270214030259523e-02  1.4977841592237808e-02  1.6640139113162478e-02  1.8257095859141950e-02  1.9826520399799916e-02  2.1348282626051894e-02  2.2819479023805000e-02  2.4239084368660818e-02  2.5604214989290806e-02  2.6912517304019005e-02  2.8163232222712119e-02  2.9349322947249037e-02  3.0467707554837912e-02  3.1513674113342487e-02  3.2482500175348740e-02  3.3366716378395854e-02  3.4162624741301155e-02  3.4861995535423566e-02  3.5452380136052161e-02  3.5931643129920220e-02  3.6287999786948570e-02  3.6508657148404296e-02  3.6585642346109136e-02  3.6510361566425432e-02  3.6269866306237498e-02  3.5853019644859263e-02  3.5266762654985906e-02  3.4488997447204101e-02  3.3496491895740631e-02  3.2322231109729718e-02  3.0929516749780832e-02  2.9333645544028435e-02  2.7524447240402677e-02  2.5518216736950126e-02  2.3307184538000819e-02  2.0904064331624023e-02  1.8324964111594524e-02  1.5578233069690887e-02  1.2679924396316418e-02  9.6484234299718929e-03  6.4993507570711064e-03  3.2519121118301927e-03  -6.9724159390551307e-05  -3.4470986658130349e-03  -6.8625410758370283e-03  -1.0298593954525393e-02  -1.3739588387080243e-02  -1.7173900040415045e-02  -2.0592092605836075e-02  -2.3988337132348731e-02  -2.7362337979785479e-02  -3.0715480745814056e-02  -3.4058658433245445e-02  -3.7402945027398202e-02  -4.0767198001707680e-02  -4.4176824400385492e-02  -4.7661801708354615e-02  -5.1261947150713666e-02  -5.5023170501533103e-02  -5.9000866407144484e-02  -6.3255244611908817e-02  -6.7868225719007302e-02  -7.2910097856234118e-02  -7.8477263227322791e-02  -8.4661738682331136e-02  -9.1541130322372544e-02  -9.9163135505693584e-02  -1.0751634084312092e-01  -1.1643148017167615e-01  -1.2571944522920758e-01  -1.3495439638727513e-01  -1.4372981539898988e-01  -1.5163743230836643e-01  -1.5848535729121480e-01  -1.6372878995056286e-01  -1.6748702548065025e-01  -1.6967166499574299e-01  -1.7068835358095916e-01  -1.7042582334928782e-01  -1.6898971738407190e-01  -1.6670857040601811e-01  -1.6367101562126679e-01  -1.5993275399911180e-01  -1.5568790519000580e-01  -1.5097345157537742e-01  -1.4595417165323984e-01  -1.4065544491914930e-01  -1.3509887710652693e-01  -1.2939514370091071e-01  -1.2355691946658674e-01  -1.1759560202459378e-01  -1.1154627475980129e-01  -1.0544029896147979e-01  -9.9290191931809157e-02  -9.3101599077612202e-02  -8.6890710441295385e-02  -8.0659983068751995e-02  -7.4426607649001789e-02  -6.8187496042756784e-02  -6.1950787503008892e-02  -5.5719900162722977e-02  -4.9496457627236971e-02  -4.3284250868667468e-02  -3.7084474251717577e-02  -3.0898132181351130e-02  -2.4726800891067650e-02  -1.8571434898259138e-02  -1.2432664777405702e-02  -6.3110080186779480e-03  -2.0732550990081074e-04  5.8785381900641094e-03  1.1946109891564608e-02  1.7995055269598541e-02  2.4025374406056919e-02  3.0036742918519203e-02  3.6028781829892866e-02  3.6025641262837499e-02  3.6017968140113599e-02  3.6005920965313312e-02  3.5991286397230697e-02  3.5976636690505534e-02  3.5964564256965953e-02  3.5956839937550229e-02  3.5953710641785409e-02  3.5391311870738323e-02  -6.6799023237291436e-02  -9.4184845655383709e-01  -5.4320919899901121e-01  -4.3773786913265605e-01  -3.7117728208113110e-01  -3.2391419112574166e-01  -2.8693511750594686e-01  -2.5668414734679695e-01  -2.3666136339223420e-01  -2.1772965833238553e-01  -2.0146605669002149e-01  -1.8602009284921753e-01  -1.7124152993655364e-01  -1.5683628925345114e-01  7.5254218535697845e-02  9.3269572628978087e-02  8.5530569156789818e-02  6.5291630158392830e-02  4.5006383103825487e-02  2.9067358488752998e-02  -5.7383030158160542e-01  -8.0577090252328287e-02  1.9133050026753536e-02  1.4100325029933032e-02  1.2800250255984278e-02  -2.2891907544000528e-02  1.4174738242396231e-02  -1.4257126527376365e-01  1.6730223784880548e-02  -1.2784471345969695e-01  2.0042079313953048e-02  -6.0936773932632249e-02  -4.5852616217705554e-02  2.3268762315078930e-02  -3.2449045066595211e-02  -1.1310125971041787e-01  -1.5566222202719179e-02  2.5667876283056373e-02  -9.7611426307769075e-02  7.6563146345529475e-03  2.7345299038150861e-02  1.3992415644095903e-03  -1.0259448209066435e-01  -8.1806738682232011e-02  2.7899133258500051e-02  1.9366664794083784e-02  -6.4041089284735148e-02  2.6174840839159583e-02  2.7225421530485790e-02  3.1470251106083473e-02  -4.6600025388308930e-02  -1.2860676411503150e-01  2.5373792936562448e-02  3.4704985143170948e-02  -1.5389210262178085e-01  3.6229128073728273e-02  2.2206607275403967e-02  -1.6792229716983020e-01  -2.6305130816226516e-02  -1.2251942389880106e-02  1.0941704911247406e-02  1.9071856621638503e-02  1.5180685531980417e-02  3.6228429346166449e-02  -1.6943986193088251e-01  3.4316985410641085e-02  -6.5399208649889318e-01  -1.5795174202204243e-01  3.1865813993378816e-02  5.2242228707634602e-03  -1.4326479210219847e-01  1.1029280049152358e-02  2.7461637136319474e-02  -1.2633169869852900e-01  -1.0219089161047373e-01  2.3451668822460081e-02  -7.1300339744633887e-02  1.8975345388595705e-02  -5.2549805621989458e-02  -3.3883969126296543e-02  1.4073054982198895e-02  -2.3654231959271852e-03  1.7514981579953245e-03  3.0417455315844669e-02  -9.7669938499256193e-03  8.9061654548261478e-03  6.1025152341039925e-03  1.5421637688893174e-02  -3.9667733863460182e-02  -3.1714719960826972e-03  -6.9910465976974437e-02  -1.6494903338405975e-01  -1.1501305537879328e-01  -9.0305928506499739e-02  1.5685642561676771e-02  -9.0228105962279290e-03  -2.5598742827639558e-02  -3.9009914812441988e-02  -5.2972535412897710e-02  -3.6281287990970988e-02  3.5531456269356193e-02  -5.5577574505047675e-02  -2.1685251491847465e-02  2.9802612408704760e-02  2.3939274620379355e-02  -7.3486611796142479e-02  2.6392724666236218e-02  2.7725750376833520e-02  -8.9336159143942218e-02  2.7767818298146400e-02  2.6634381013037833e-02  2.4416637475614171e-02  2.1751479355877186e-02  2.3490840921857867e-02  -1.0544202017372108e-01  1.8349137892651076e-02  1.5368635018250497e-02  -1.2060240583980895e-01  1.3239630544624053e-02  1.3012915725001822e-02  1.5984938159615786e-02  1.4371016828242660e-03  -1.3570250758621022e-01  -1.4916784576601028e-01  3.0731726242547414e-02  -1.6363829906280050e-01  -1.7856178334916922e-01  -1.9362843053707585e-01  -2.0975993703518303e-01  -2.2700137515561195e-01  -2.4587476270821856e-01  5.7141396136779786e-02  -2.7386532488031545e-01  -3.0757205572620527e-01  -3.5044473375024987e-01  8.7884470656543187e-02  -4.0842660145307685e-01  7.6358840609605974e-02  9.1677732550744698e-02  5.5626701704604355e-02  3.6413550088779556e-02  -4.9396341203365907e-01  -1.3643795367990348e+00  1.8432809758713220e-03  3.0282303038066324e-02  4.9475805429482541e-03  -6.5427947388979855e-03  3.0970056886034061e-02  1.4503078023468533e-03  2.6933409129313701e-02  -5.5389890242904345e-03  -4.9461370203262404e-03  -2.6564693919273654e-03  -5.4832707322109145e-03  -3.0402913011991170e-03  -6.0392352785481650e-03  -2.7150191689670317e-03  -5.7316549093555397e-03  -1.8126954468330604e-03  -4.7016298770918294e-03  -7.4504299963555078e-04  -4.2911758827855655e-03  -2.0476203843213935e-04  -6.0777484848826583e-03  -1.7721864232567940e-03  -1.0748751734992464e-02  -6.1304273407774071e-03  -1.8319682567531820e-02  -1.3312061328348692e-02  -2.7754820757807084e-02  -2.1594773927483189e-02  -3.5182995863540033e-02  -5.4356213897169920e-03  -1.5997897372072314e-02  -4.4487760289050084e-02  -5.4108720277584003e-02  -1.0209792684642855e-03  -1.1066011359042177e-02  4.8905494259321308e-03  -7.5609917060112889e-03  9.8474311987049850e-03  -5.7314142172333214e-03  1.3638217480260737e-02  -2.2899687825453903e-03  1.6726638697961205e-02  -3.5534628796878684e-03  1.7070840422783281e-02  -1.1346169814950996e-03  1.7673823842253571e-02  -1.7150583529360307e-03  1.6902004937234847e-02  -2.6499786069030759e-03  1.5309634012725920e-02  -4.3099084723531508e-03  1.3094813061596863e-02  -5.5720367559393283e-03  1.0566373783911742e-02  -7.3852384413826341e-03  7.8415774296132137e-03  -8.7146813210349158e-03  4.1974596229238832e-03  -1.0071213495525630e-02  3.7500848947509928e-03  -6.2117644276038358e-02  -7.5412858336639174e-02  -1.1576061468972835e-02  1.5303989110203417e-04  -1.1813811997867565e-02  -1.2357548262462825e-03  -1.2649422429515392e-02  -2.7309334123696047e-03  -1.2702861297630062e-02  -3.6961259519019307e-03  -2.6063768931266797e-02  -1.2311513195319040e-02  -4.2773771643544326e-03  -1.2748371848666295e-02  -4.7052349104016490e-03  -1.0790778625179510e-02  -4.3247753395471234e-03  -7.9258969374313606e-02  -9.7699596280531542e-02  -9.1074486983912517e-03  -9.7389343505623130e-03  -3.8344739400086960e-03  -8.2819151770716273e-03  -3.0528454786987514e-03  -6.7049449970235367e-03  -2.0327521201900368e-03  -7.1754786887120309e-02  -4.9299800625022799e-03  -7.7528781914293571e-04  -2.1048847628060866e-02  -3.0271339343647006e-03  6.5216798055528719e-04  -1.0102528011421360e-03  2.2638518513991165e-03  1.1312864390103884e-03  3.9603211485028759e-03  4.9490816848083196e-03  -1.8885389571244075e-02  3.2966302297267680e-03  5.7889488859634002e-03  -9.4866274966688688e-02  -1.1327249772852253e-01  -8.0603987521024573e-02  -2.0131374206812842e-02  5.5130646465957984e-03  7.7208969420141079e-03  7.7392639580582409e-03  9.6842603555180283e-03  9.9770459748687659e-03  1.1594058954365771e-02  2.4264371547814295e-03  8.3309580729644221e-03  2.7606221503930408e-03  5.4597287302498481e-03  1.2187352040968321e-02  1.3520294518219575e-02  1.2991642181921196e-02  1.4609093217711337e-02  1.5420905394972071e-02  1.6214221494571822e-02  1.7282982454877312e-02  1.7842223704991479e-02  1.9096227935876346e-02  1.9464837107531028e-02  2.0839434129685825e-02  2.1017875999833131e-02  2.2499745352308545e-02  2.2502110322310788e-02  2.4087943407329029e-02  2.3918555369165914e-02  2.5561799919203921e-02  2.5202692438282576e-02  2.6915471305852385e-02  2.6436533986992736e-02  2.8176574493267385e-02  2.7566246349598086e-02  2.9348686367165002e-02  2.8604518825694595e-02  1.1447800955392875e-02  -2.2031681412128776e-02  3.0378136818253503e-02  2.9529809582059748e-02  3.1243932987509732e-02  3.0342334357505548e-02  2.6995370499782494e-02  3.0522546333090456e-02  3.2008798064700236e-02  3.1040494736931015e-02  3.6683772366933404e-02  -2.0328100211931911e-02  -1.0581429560455062e-01  -1.2488638503912923e-01  -1.4134113649640415e-01  -1.4991074506574711e-01  -1.7448051804324477e-01  -1.7792855827305326e-01  -2.1675336054956898e-01  -2.0932792754040846e-01  -2.5039510845354201e-01  -2.3763335646343370e-01  -2.8600594633473414e-01  -2.6275823093205225e-01  -3.0907817621514383e-01  -2.8115859192833365e-01  -3.2401508067204138e-01  -2.9371223180810802e-01  -3.3042302711787613e-01  -2.9986806274913513e-01  -3.3057877596402818e-01  -3.0101103106320737e-01  -3.2619205895699882e-01  -2.9871431495263984e-01  -3.1934675491051973e-01  -2.9435855859483417e-01  -3.1110593755657762e-01  -2.8879683697329017e-01  -3.0112988697881332e-01  -2.8083500170650755e-01  -2.6699807860185826e-01  -2.6266167246376126e-01  -2.7444753690388951e-01  -2.5799981671976263e-01  -2.6905659623524336e-01  -2.5335043186954925e-01  -2.6183203434648428e-01  -2.4795538299838635e-01  -2.4867861400923222e-01  -2.4647283795522923e-01  -2.7346802857322156e-01  -2.5505979198337364e-01  -2.4249977028122749e-01  -2.3392267325536117e-01  -2.2999852985573960e-01  -2.3705380082326299e-01  -2.2614618382180826e-01  -2.3153477743797318e-01  -2.2180212859010981e-01  -2.2603734605893946e-01  -2.1696223971260825e-01  -2.1810546804049957e-01  -2.0314484599962168e-01  -3.4182062209262154e-01  -2.2065544118258448e-01  -2.1227289262629351e-01  -2.0797962438148065e-01  -2.0390743259748459e-01  -2.0762442533066947e-01  -2.0005476530761018e-01  -2.0284595255607249e-01  -1.9593700262266378e-01  -3.6929601550732927e-01  -1.9592591246120494e-01  -1.9809546255953803e-01  -1.9184252979230754e-01  -3.5678663404432726e-01  -1.9350118688552576e-01  -1.8752457909218109e-01  -1.8582920225125280e-01  -1.8155255289610206e-01  -1.8313847298133876e-01  -1.7747348494692272e-01  -1.7551172120253145e-01  -1.7184027747599603e-01  -1.7336993000818476e-01  -1.6805845684949736e-01  -1.6918652590970637e-01  -1.6408585217064195e-01  -1.6284752146660650e-01  -1.5914540251934803e-01  -1.5999800291884908e-01  -1.5530941438484511e-01  -1.5587569986316688e-01  -1.5136907440654757e-01  -1.5201048390066568e-01  -2.8501477601358793e-01  -3.3313884178848169e-01  -1.5177665987232858e-01  -1.4739053320496748e-01  -1.4690791476972931e-01  -1.4293442184266825e-01  -1.4319183882513409e-01  -1.3890422302928140e-01  -1.4243175971728755e-01  3.2686994553527818e-02  3.1637279532461614e-02  3.3215585637598251e-02  3.2113834295783926e-02  3.3612266190446001e-02  3.2473524838595717e-02  -2.4196806612403779e-01  -1.5082364629043740e-02  -8.4140099992638263e-03  -1.3892076998375744e-01  -1.3482175268697585e-01  -2.6754003329987025e-01  2.0881088106692570e-02  2.6765908811676908e-02  1.4054058341229926e-02  3.3885501864382689e-02  3.2718007160497248e-02  3.1181538232180925e-02  3.1420210842485266e-02  3.2851758302114599e-02  3.1546515118016934e-02  3.2865311142453585e-02  3.1565315901254339e-02  3.2782673550210001e-02  3.1501572358267491e-02  3.2592994710402216e-02  3.1331902917038523e-02  3.2312314866384952e-02  3.1076710755685501e-02  3.1950214299725298e-02  3.0719532262479712e-02  3.1487080823710573e-02  3.0274344490083954e-02  3.0929601461768999e-02  2.9734231841690426e-02  3.0273342137356246e-02  2.9108614789879597e-02  2.9544623446043028e-02  2.8401555600176345e-02  2.8745786348470921e-02  2.7610066040390176e-02  2.7862682283573137e-02  2.6746670700895314e-02  2.6868230780248942e-02  2.5795510196592913e-02  2.5879893596372584e-02  2.4785902475273409e-02  2.9837836518084488e-02  -1.5797512801268743e-01  -2.1037503550237496e-01  -1.3455381820643300e-01  -1.3057382783536819e-01  -1.3077498782149358e-01  -1.2647347197157474e-01  -1.2669950158663995e-01  -1.2238200701821660e-01  -1.2214342508942798e-01  -1.1810052523804683e-01  -1.1762663690244685e-01  -1.1367860506114638e-01  -1.1406100020269525e-01  -1.0969815756087874e-01  -1.0936360814894870e-01  -1.0532522468895579e-01  -1.0491465951951177e-01  -1.00889431139