<?xml version="1.0"?>
<VTKFile type="UnstructuredGrid"  version="0.1"  >
<UnstructuredGrid>
<Piece  NumberOfPoints="2945" NumberOfCells="5525">
<Points>
<DataArray  type="Float64"  NumberOfComponents="3"  format="ascii">0 0.1 0  0.95 0.1 0  1 0.1 0  1 0 0  1.5 0 0  3 0 0  3 0.3 0  0 0.3 0  0.0197424558707114 0.1 0  0.03915669042224804 0.1 0  0.05824816022699029 0.1 0  0.07702223050332387 0.1 0  0.09548417327144595 0.1 0  0.1136391897583987 0.1 0  0.1314923700144587 0.1 0  0.1490487330862866 0.1 0  0.1663132263225292 0.1 0  0.1832906857273058 0.1 0  0.1999858946008978 0.1 0  0.216403545770297 0.1 0  0.2325482404045023 0.1 0  0.2484245348165176 0.1 0  0.2640368740372501 0.1 0  0.2793896589642241 0.1 0  0.2944872056237027 0.1 0  0.3093337469555254 0.1 0  0.3239334613687816 0.1 0  0.3382904528528069 0.1 0  0.3524087553122972 0.1 0  0.3662923366391824 0.1 0  0.3799451014768399 0.1 0  0.393370886920506 0.1 0  0.4065734648871676 0.1 0  0.419556546320114 0.1 0  0.4323237821343415 0.1 0  0.4448787573056132 0.1 0  0.4572250047274954 0.1 0  0.4693659926332938 0.1 0  0.4813051343276231 0.1 0  0.4930457849308193 0.1 0  0.5045912455271677 0.1 0  0.5159447600209797 0.1 0  0.5271095174127136 0.1 0  0.5380886618453393 0.1 0  0.5488852725463512 0.1 0  0.5595023868312478 0.1 0  0.5699429904313016 0.1 0  0.5802100167387366 0.1 0  0.5903063508274641 0.1 0  0.6002348329443006 0.1 0  0.6099982499579832 0.1 0  0.6195993483501782 0.1 0  0.6290408246013842 0.1 0  0.6383253354321616 0.1 0  0.6474554910757137 0.1 0  0.6564338522440513 0.1 0  0.6652629482939147 0.1 0  0.6739452579188948 0.1 0  0.6824832240165607 0.1 0  0.6908792415022103 0.1 0  0.6991356755989045 0.1 0  0.7072548438546967 0.1 0  0.7152390281534421 0.1 0  0.7230904746196039 0.1 0  0.7308113906759266 0.1 0  0.7384039435269326 0.1 0  0.7458702676581656 0.1 0  0.7532124631720397 0.1 0  0.7604325921167397 0.1 0  0.7675326856666862 0.1 0  0.7745147374421916 0.1 0  0.7813807123989068 0.1 0  0.7881325374362798 0.1 0  0.7947721131625659 0.1 0  0.8013013031866276 0.1 0  0.8077219449067021 0.1 0  0.8140358419942376 0.1 0  0.8202447685401882 0.1 0  0.8263504700910924 0.1 0  0.8323546643163114 0.1 0  0.8382590362474568 0.1 0  0.8440652473522128 0.1 0  0.8497749272799842 0.1 0  0.8553896837646281 0.1 0  0.8609110933285474 0.1 0  0.866340708855119 0.1 0  0.8716800550492284 0.1 0  0.8769306339052932 0.1 0  0.8820939206038667 0.1 0  0.8871713655604893 0.1 0  0.8921643975475726 0.1 0  0.8970744196575535 0.1 0  0.9019028106970642 0.1 0  0.9066509291259979 0.1 0  0.9113201098984042 0.1 0  0.9159116634553873 0.1 0  0.9204268818729691 0.1 0  0.9248670319440222 0.1 0  0.9292333656649013 0.1 0  0.9335271075812669 0.1 0  0.9377494640511216 0.1 0  0.941901623463222 0.1 0  0.9459847526686701 0.1 0  0.9538461538461205 0.1 0  0.9576923076922409 0.1 0  0.9615384615384381 0.1 0  0.9653846153846337 0.1 0  0.9692307692307542 0.1 0  0.9730769230768747 0.1 0  0.9769230769229952 0.1 0  0.9807692307691157 0.1 0  0.9846153846152361 0.1 0  0.9884615384614317 0.1 0  0.9923076923076356 0.1 0  0.9961538461538395 0.1 0  1 0.09591793123533533 0  1 0.09133596463859224 0  1 0.08619288104391448 0  1 0.08041996484521211 0  1 0.07394008421771697 0  1 0.06666666567302955 0  1 0.05850252932209174 0  1 0.04933859630113544 0  1 0.03905242821848202 0  1 0.02750659386753798 0  1 0.01454683679239736 0  1.015625 0 0  1.03125 0 0  1.046875 0 0  1.0625 0 0  1.078125 0 0  1.09375 0 0  1.109375 0 0  1.125 0 0  1.140625 0 0  1.15625 0 0  1.171875 0 0  1.1875 0 0  1.203125 0 0  1.21875 0 0  1.234375 0 0  1.25 0 0  1.265625 0 0  1.28125 0 0  1.296875 0 0  1.3125 0 0  1.328125 0 0  1.34375 0 0  1.359375 0 0  1.375 0 0  1.390625 0 0  1.40625 0 0  1.421875 0 0  1.4375 0 0  1.453125 0 0  1.46875 0 0  1.484375 0 0  1.515920751924515 0 0  1.531989369316721 0 0  1.54820720925872 0 0  1.564575665560501 0 0  1.581096138674279 0 0  1.597770029901263 0 0  1.614598783332311 0 0  1.631583831055205 0 0  1.64872661129721 0 0  1.666028606716533 0 0  1.683491276608443 0 0  1.701116134125304 0 0  1.718904673324128 0 0  1.736858414799339 0 0  1.754978895814663 0 0  1.773267661782904 0 0  1.791726281103402 0 0  1.810356325314689 0 0  1.8291593848892 0 0  1.848137076690385 0 0  1.867291007717254 0 0  1.886622833871288 0 0  1.90613418642363 0 0  1.925826753299799 0 0  1.945702199101513 0 0  1.96576223584749 0 0  1.986008569283268 0 0  2.006442931928877 0 0  2.02706707547783 0 0  2.047882750887917 0 0  2.06889175187935 0 0  2.090095860038271 0 0  2.111496891648636 0 0  2.133096679109554 0 0  2.154897066851056 0 0  2.176899916687499 0 0  2.199107102752146 0 0  2.22152053937028 0 0  2.244142122958061 0 0  2.266973806444078 0 0  2.290017523268154 0 0  2.313275249499252 0 0  2.336748971745516 0 0  2.360440702338606 0 0  2.384352453384031 0 0  2.408486280477412 0 0  2.432844240041185 0 0  2.457428414757088 0 0  2.482240901796653 0 0  2.507283830121838 0 0  2.532559332080812 0 0  2.558069568787417 0 0  2.583816724966441 0 0  2.60980299606584 0 0  2.636030600971886 0 0  2.662501790984011 0 0  2.689218818279327 0 0  2.716183964547616 0 0  2.743399548861297 0 0  2.77086788244719 0 0  2.798591312896326 0 0  2.826572223178268 0 0  2.854812990138617 0 0  2.883316031690714 0 0  2.912083780657189 0 0  2.941118704633482 0 0  2.970423276998917 0 0  3 0.02999999999994495 0  3 0.05999999999987042 0  3 0.089999999999783 0  3 0.119999999999701 0  3 0.149999999999619 0  3 0.179999999999692 0  3 0.2099999999997737 0  3 0.2399999999998511 0  3 0.2699999999999185 0  2.970138294777171 0.3 0  2.940375666438236 0.3 0  2.910711782853056 0.3 0  2.881146331305122 0.3 0  2.851678975030285 0.3 0  2.822309388626621 0.3 0  2.793037250095074 0.3 0  2.76386223529133 0.3 0  2.734784017903872 0.3 0  2.705802289276642 0.3 0  2.676916713794697 0.3 0  2.648126987654635 0.3 0  2.619432780406184 0.3 0  2.590833779385199 0.3 0  2.562329669847737 0.3 0  2.533920134950189 0.3 0  2.505604855727852 0.3 0  2.477383539822502 0.3 0  2.449255847639465 0.3 0  2.421221492569094 0.3 0  2.393280152486815 0.3 0  2.36543151914496 0.3 0  2.337675285481809 0.3 0  2.310011142385583 0.3 0  2.282438797441587 0.3 0  2.254957931061538 0.3 0  2.227568248063605 0.3 0  2.200269436651085 0.3 0  2.173061204949961 0.3 0  2.145943251515011 0.3 0  2.118915272469994 0.3 0  2.091976978084957 0.3 0  2.065128060700849 0.3 0  2.038368218849433 0.3 0  2.01169717777258 0.3 0  1.985114624111908 0.3 0  1.958620267850966 0.3 0  1.93221382054972 0.3 0  1.905894991850698 0.3 0  1.879663489459713 0.3 0  1.853519019126419 0.3 0  1.827461291053897 0.3 0  1.801490031354372 0.3 0  1.775604937580312 0.3 0  1.74980572560258 0.3 0  1.724092118631866 0.3 0  1.698463829173586 0.3 0  1.672920575782554 0.3 0  1.647462076974085 0.3 0  1.622088043536933 0.3 0  1.5967981978949 0.3 0  1.571592267767068 0.3 0  1.546469970305736 0.3 0  1.521431023814044 0.3 0  1.496475156230927 0.3 0  1.471602093687753 0.3 0  1.446811560490646 0.3 0  1.422103279101731 0.3 0  1.397476971708191 0.3 0  1.37293238939876 0.3 0  1.348469231419202 0.3 0  1.324087248732772 0.3 0  1.299786165921677 0.3 0  1.275565710847046 0.3 0  1.251425617644257 0.3 0  1.227365618676339 0.3 0  1.203385446174014 0.3 0  1.179484853067473 0.3 0  1.155663548773374 0.3 0  1.131921292279077 0.3 0  1.108257802159295 0.3 0  1.084672829009693 0.3 0  1.061166115303374 0.3 0  1.037737392995421 0.3 0  1.01438640299116 0.3 0  0.991112899770314 0.3 0  0.9679166155523955 0.3 0  0.944797284182564 0.3 0  0.921754678526042 0.3 0  0.8987885143602501 0.3 0  0.8758985548820624 0.3 0  0.8530845484099929 0.3 0  0.8303462351786988 0.3 0  0.8076833651172373 0.3 0  0.7850956864865304 0.3 0  0.7625829601354557 0.3 0  0.7401449314598274 0.3 0  0.717781337993959 0.3 0  0.6954919649675473 0.3 0  0.6732765357561226 0.3 0  0.6511348120768439 0.3 0  0.6290665642016573 0.3 0  0.6070715355430467 0.3 0  0.5851494825775325 0.3 0  0.5633001690203812 0.3 0  0.5415233562273221 0.3 0  0.5198187909431873 0.3 0  0.4981862401387795 0.3 0  0.4766254686134248 0.3 0  0.4551362360485234 0.3 0  0.4337182975262159 0.3 0  0.4123714223228037 0.3 0  0.3910953802377493 0.3 0  0.3698899313205595 0.3 0  0.3487548463710963 0.3 0  0.3276898864081783 0.3 0  0.3066948129116018 0.3 0  0.2857694003037476 0.3 0  0.2649134227095047 0.3 0  0.2441266417321288 0.3 0  0.2234088223399122 0.3 0  0.2027597568977288 0.3 0  0.1821792020676698 0.3 0  0.1616669305402443 0.3 0  0.1412227158799362 0.3 0  0.12084633013886 0.3 0  0.1005375673448281 0.3 0  0.08029618164595353 0.3 0  0.06012194778526769 0.3 0  0.04001466495039718 0.3 0  0.01997408913631205 0.3 0  0 0.2800000000000553 0  0 0.2600000000001105 0  0 0.2400000000001658 0  0 0.2200000000002211 0  0 0.2000000000002764 0  0 0.1800000000002244 0  0 0.1600000000001691 0  0 0.140000000000115 0  0 0.1200000000000564 0  1.133778471000506 0.01219539743990768 0  1.003741919047894 0.09354664821474232 0  0.9559421147150347 0.1035858189992458 0  0.9313792160389045 0.1037365237938103 0  0.9788461538460573 0.1033060829993555 0  0.9090102438250753 0.1037269304984056 0  0.8846304212778655 0.1043349840723655 0  0.8581503885465881 0.104741932962923 0  0.8286416220145676 0.1052762843984476 0  0.7982741772533339 0.1053575624517407 0  0.7708789559342691 0.1060290465840416 0  0.741870349714261 0.1078220590984258 0  0.7112469360040695 0.10685702926368 0  0.6783901541417233 0.1079959711853378 0  0.642884733623195 0.1075561996086514 0  0.6056235042367955 0.1085956039602543 0  0.5647007593786924 0.1083187281660325 0  1.1953125 0.01353164693413185 0  1.258148737344733 0.01268350115427042 0  1.320087046516829 0.01426312402966312 0  1.383495130751951 0.01432665475473204 0  1.4453125 0.01315663539200989 0  1.50886768312388 0.01395488397722681 0  0.9942307692307371 0.103330866937657 0  1.119309781943483 0.2802014914557878 0  1.572831235329714 0.01707210522554785 0  1.637611634353954 0.01209340368483431 0  1.709661292005932 0.0146870244871893 0  1.006561890631532 0.07068055446055937 0  1.784793444007901 0.01499371444634687 0  1.855459587353174 0.0
[...]
<PointData  Scalars="pressure"> 
<DataArray  type="Float64"  Name="pressure"  format="ascii">1.3216889931823755e-01  -1.7980219868914285e-01  -2.0579544913455466e-01  -1.5181970925545196e-01  -2.9661512426396926e-02  0.0000000000000000e+00  0.0000000000000000e+00  1.3218128902591136e-01  1.2624617505502669e-01  1.2042178582933036e-01  1.1469405781162086e-01  1.0906136460139410e-01  1.0352208286529514e-01  9.8074659643630671e-02  9.2717529402126006e-02  8.7449147759438239e-02  8.2268047333570432e-02  7.7172670311400265e-02  7.2161565932025842e-02  6.7233319763195631e-02  6.2386452398238257e-02  5.7619578035147910e-02  5.2931258214443402e-02  4.8320139814910394e-02  4.3784794345251503e-02  3.9323928078925263e-02  3.4936127283304384e-02  3.0620127876720794e-02  2.6374480060801876e-02  2.2197963420432183e-02  1.8089429367956721e-02  1.4047247032600728e-02  1.0070323136046935e-02  6.1572896925232616e-03  2.3069966989406761e-03  -1.4819701226938249e-03  -5.2107996270653054e-03  -8.8808093956170998e-03  -1.2493198160006849e-02  -1.6049057809285096e-02  -1.9550067340466812e-02  -2.2997222770072833e-02  -2.6391721660138569e-02  -2.9734859119561523e-02  -3.3028000085478765e-02  -3.6272218321349227e-02  -3.9468883630483745e-02  -4.2619139661643990e-02  -4.5724399563132234e-02  -4.8785803623136947e-02  -5.1804586121694411e-02  -5.4781962728905113e-02  -5.7719310374931831e-02  -6.0617699242587919e-02  -6.3478606984149658e-02  -6.6303081616825355e-02  -6.9092425545933756e-02  -7.1848140174960162e-02  -7.4571031175274013e-02  -7.7262703881767841e-02  -7.9924586895989094e-02  -8.2556938816162287e-02  -8.5161914097696342e-02  -8.7740636587730084e-02  -9.0293969256414600e-02  -9.2824340986718865e-02  -9.5331425304738246e-02  -9.7816444501959310e-02  -1.0028188907054161e-01  -1.0272839647221702e-01  -1.0515788762047103e-01  -1.0757016023053211e-01  -1.0996641083086756e-01  -1.1234981736071323e-01  -1.1472020579874646e-01  -1.1707924358990042e-01  -1.1942810252880334e-01  -1.2176813423627177e-01  -1.2410032074722556e-01  -1.2642651768179514e-01  -1.2874725700448922e-01  -1.3106399036794619e-01  -1.3337913623320080e-01  -1.3569357581285260e-01  -1.3800815316612075e-01  -1.4032529762044696e-01  -1.4264642997827434e-01  -1.4497276784108976e-01  -1.4730565458673991e-01  -1.4965016070135731e-01  -1.5200498048987224e-01  -1.5437363453228767e-01  -1.5675802833330338e-01  -1.5916308435805951e-01  -1.6159043769200146e-01  -1.6404324772052717e-01  -1.6652998128191765e-01  -1.6905261997671658e-01  -1.7161622633354029e-01  -1.7423501659988935e-01  -1.7692100938650351e-01  -1.7955332449516939e-01  -1.8313879717823767e-01  -1.8813864576943762e-01  -1.9512191945018051e-01  -1.9842554645841617e-01  -1.9974858915699220e-01  -1.9924981752130941e-01  -1.9741803128537083e-01  -1.9459065523532981e-01  -1.9116160410150906e-01  -1.8743551919855439e-01  -1.8362046799118126e-01  -1.8149504784266596e-01  -1.6954975162885863e-01  -1.9283568843380819e-01  -1.7303625066799552e-01  -1.6615052396032687e-01  -1.6120427788098543e-01  -1.5792172690326950e-01  -1.5545615499600537e-01  -1.5353577316599978e-01  -1.5214823682402012e-01  -1.5130717618889875e-01  -1.5106214984823646e-01  -1.5146097206388795e-01  -1.5227368507137290e-01  -1.5263756406058515e-01  -1.5239075835908467e-01  -1.5165826694816292e-01  -1.5052729249701527e-01  -1.4904087309655253e-01  -1.4718146794558501e-01  -1.4493830527512960e-01  -1.4234438674038449e-01  -1.3941598917557321e-01  -1.3616099494561354e-01  -1.3260194663798980e-01  -1.2875452779404770e-01  -1.2463193238597046e-01  -1.2025640113960812e-01  -1.1565080029606700e-01  -1.1083583382137326e-01  -1.0582964443914455e-01  -1.0065830197031019e-01  -9.5339367371883213e-02  -8.9903279302137595e-02  -8.4377071820404700e-02  -7.8778722058312406e-02  -7.3142397070825690e-02  -6.7487719098581117e-02  -6.1848507165872389e-02  -5.6247332540704298e-02  -5.0706729863912225e-02  -4.5256749453949675e-02  -3.9918240639917953e-02  -3.4713912120561609e-02  -2.4689534049625119e-02  -1.9874115743466786e-02  -1.5222971811225635e-02  -1.0771960985647885e-02  -6.5180602144577406e-03  -2.4825278543448180e-03  1.3257128821680779e-03  4.9058240208591083e-03  8.2225462077842367e-03  1.1296395482857637e-02  1.4129440040220195e-02  1.6720232715030817e-02  1.9069675644408111e-02  2.1187680313135164e-02  2.3081619522328654e-02  2.4763834290861458e-02  2.6246763720138056e-02  2.7534960883197526e-02  2.8640295085489771e-02  2.9592950656448652e-02  3.0383061158868536e-02  3.1036962104882746e-02  3.1566750075669954e-02  3.1978211364214401e-02  3.2291857623529360e-02  3.2506271303462744e-02  3.2649456180842459e-02  3.2712930148213387e-02  3.2712400417359268e-02  3.2650961492079141e-02  3.2534258081672686e-02  3.2369187123961224e-02  3.2162787532281703e-02  3.1917573668666023e-02  3.1633105422876125e-02  3.1314658494915638e-02  3.0962373120453236e-02  3.0578288223235595e-02  3.0161823046890496e-02  2.9713585748931338e-02  2.9233182961982948e-02  2.8720107097544877e-02  2.8172967882076370e-02  2.7590698994557537e-02  2.6971815008788230e-02  2.6315645657008183e-02  2.5619350934063943e-02  2.4881562520551070e-02  2.4102059733859343e-02  2.3277456518241837e-02  2.2404678467899643e-02  2.1489195571089824e-02  2.0520691342709119e-02  1.9508340774172017e-02  1.8444419245844862e-02  1.7326005272855109e-02  1.6164161751897620e-02  1.4945504226762185e-02  1.3679758488917075e-02  1.2363672727469041e-02  1.0996121078886794e-02  9.5773972195574032e-03  8.1086382231465529e-03  6.5941468751898576e-03  5.0247340908499164e-03  3.4165996560710146e-03  1.7542750567950377e-03  0.0000000000000000e+00  0.0000000000000000e+00  0.0000000000000000e+00  0.0000000000000000e+00  0.0000000000000000e+00  0.0000000000000000e+00  0.0000000000000000e+00  0.0000000000000000e+00  0.0000000000000000e+00  1.8821686110359721e-03  3.6465672951696100e-03  5.3840995348997632e-03  7.0715571777146512e-03  8.7119472890400378e-03  1.0304177857455342e-02  1.1847570269003854e-02  1.3340682927374621e-02  1.4781376513343426e-02  1.6167924129500084e-02  1.7497807731535617e-02  1.8768497306462850e-02  1.9976533027786934e-02  2.1119396318570835e-02  2.2194174617622554e-02  2.3193035250059876e-02  2.4118501830116310e-02  2.4956676376472853e-02  2.5707251857080539e-02  2.6361771148971556e-02  2.6913954060896254e-02  2.7357218041096903e-02  2.7685287785993780e-02  2.7887622396712327e-02  2.7964319939238973e-02  2.7903441141199952e-02  2.7696828691150352e-02  2.7341703703596162e-02  2.6827383592060491e-02  2.6150044893815325e-02  2.5303874626097064e-02  2.4284788977915295e-02  2.3096325509986304e-02  2.1731886126302450e-02  2.0162035214837556e-02  1.8424718211017349e-02  1.6496064617602908e-02  1.4375952205606978e-02  1.2063445195622448e-02  9.5662432593959078e-03  6.8727811923823311e-03  3.9946820024920537e-03  9.2527035010630556e-04  -2.3255600811906336e-03  -5.7685162215522041e-03  -9.3840988532234264e-03  -1.3189821317235607e-02  -1.7172474421129378e-02  -2.1319389297686456e-02  -2.5644248112865118e-02  -3.0123444935235433e-02  -3.4747750261531853e-02  -3.9519134218844461e-02  -4.4425012129663016e-02  -4.9446916581273322e-02  -5.4577979471871541e-02  -5.9800142223461521e-02  -6.5086199167684697e-02  -7.0409616278673204e-02  -7.5757006690723175e-02  -8.1113564497779941e-02  -8.6395282315829547e-02  -9.1589165000692460e-02  -9.6679004580697434e-02  -1.0159970472376065e-01  -1.0629158545639425e-01  -1.1073399360422770e-01  -1.1487946866105465e-01  -1.1867114195028798e-01  -1.2207223373416419e-01  -1.2493861958110553e-01  -1.2735563457614382e-01  -1.2921394623222043e-01  -1.3041811997123084e-01  -1.3079916413011708e-01  -1.3052074553676812e-01  -1.2939659889964455e-01  -1.2752581782393907e-01  -1.2506372775511720e-01  -1.2173386328245500e-01  -1.1784023164556588e-01  -1.1342239384512746e-01  -1.0861554434529443e-01  -1.0345164585234697e-01  -9.7979806694128868e-02  -9.2266530336524502e-02  -8.6386343842602076e-02  -8.0364299435024350e-02  -7.4215721160168238e-02  -6.7993509334688562e-02  -6.1701443766967429e-02  -5.5366285942752370e-02  -4.8997947256498538e-02  -4.2604817204742358e-02  -3.6196396654387140e-02  -2.9783137643005171e-02  -2.3367593095537237e-02  -1.6954358069109238e-02  -1.0547686575567461e-02  -4.1513953494333091e-03  2.2327348655035535e-03  8.6044060873577289e-03  1.4960586216250689e-02  2.1300824462517347e-02  2.7623785743903326e-02  3.3929232011119956e-02  4.0216551061715795e-02  4.6484698647511369e-02  5.2734246420848743e-02  5.8964081189585536e-02  6.5174597562276670e-02  7.1365433944535747e-02  7.7536385837394972e-02  8.3687616894628211e-02  8.9818922258632958e-02  9.5930327259588430e-02  1.0202182422423942e-01  1.0809342381573597e-01  1.1414515125316366e-01  1.2017702373963980e-01  1.2618906234881139e-01  1.3218125487431095e-01  1.3218074642910124e-01  1.3217947518232567e-01  1.3217750046283333e-01  1.3217509696596369e-01  1.3217269729301556e-01  1.3217071527766908e-01  1.3216945374727487e-01  1.3216894314163616e-01  -1.4323193462871653e-01  -1.7652039515409712e-01  -1.9320014481957470e-01  -1.7317395471555605e-01  -1.9161967793368598e-01  -1.6054529076947047e-01  -1.4859957443007493e-01  -1.3694464867498754e-01  -1.2506210367954460e-01  -1.1367510946735085e-01  -1.0393708596290571e-01  -9.4028587709079278e-02  -8.3886354672877889e-02  -7.3287594283234128e-02  -6.2060921323857210e-02  -5.0462825851409661e-02  -3.7870706435031626e-02  -1.3056121169921936e-01  -1.1316163947824120e-01  -9.2844922544944128e-02  -7.0314151149035886e-02  -4.8282936973828919e-02  -2.7261103227127822e-02  -1.7978408261531650e-01  -1.2302239238324508e-01  -9.0961604276972152e-03  5.7371022117557458e-03  1.7509712356579003e-02  -1.5732522247547231e-01  2.5401977756537349e-02  2.9661185706274917e-02  -2.4804998572003537e-02  3.1958445273799062e-02  -1.0791287732798463e-01  -8.8312443924752529e-02  3.2603916374500205e-02  -6.7189958714032244e-02  -1.0479541260234102e-02  -4.2283593594707521e-02  3.2192969987412938e-02  3.5687315497322683e-03  -1.4929814199620850e-01  3.1075487581565978e-02  -1.9015544548647196e-02  -1.2925774127312148e-01  1.9682471243070220e-02  2.9425697707781692e-02  2.4849653395106783e-03  3.7425460342277714e-02  1.0649726586770433e-02  2.7243103273134329e-02  1.7519894846400524e-02  -1.2835613064957466e-01  2.4370658621175843e-02  5.5274983728304014e-02  2.2361574546470583e-02  -1.1968727549345867e-01  -1.0549122681993900e-01  2.5653520078281884e-02  2.0997044163190103e-02  7.5164294995742564e-02  8.9965626099700921e-02  -7.5018025517365776e-03  1.7860830297720086e-02  1.4150960356888741e-02  -8.3660497863745187e-02  2.7434808993780927e-02  2.7678906222993536e-02  -6.4599385571216084e-02  -1.8113541931143640e-01  -1.9871272923742256e-01  -4.5971485093519442e-02  2.6544671200234873e-02  1.0323359624200699e-02  -2.1032879277414783e-02  2.3578876571769460e-02  1.1608103168305626e-02  2.0485578364457871e-02  4.3351180978715889e-02  1.6787030472164514e-02  6.1967783066472319e-02  9.8845538012142783e-02  8.0757322336239376e-02  1.2548174897182903e-02  1.2713214026882400e-01  1.5991764389669857e-03  1.0648130843218070e-01  -1.5231619441560182e-01  7.9978901453216719e-03  5.6597667300228608e-03  -1.6326873147798246e-01  -1.5152854507856084e-01  -1.3027928087852308e-01  -1.1629553767361270e-01  -9.5259053911934510e-02  -3.2943966168421317e-02  -7.6549324507280830e-03  2.5201738654145676e-02  -3.2161639822640878e-02  -5.6619373035722786e-02  -7.7374869010978106e-02  -9.8532529159467946e-02  6.4809564691887214e-02  4.6133094229215105e-02  2.7837333949201255e-02  2.5252658504136924e-02  2.8960942009880933e-02  2.2853369867526740e-02  1.1102263480434672e-01  2.5898597670369766e-02  2.8404509446334075e-02  1.1752610357377478e-02  3.0315680381711108e-02  1.2710104590480417e-01  3.1710263281117514e-02  -3.2484718798269797e-03  3.2515060764401423e-02  3.2454870569216192e-02  -1.7923033172891796e-02  3.1046268095372673e-02  -1.7937065644741967e-02  2.7814327260045922e-02  2.1813020641965140e-02  1.2218532884260615e-02  -3.1498569629466941e-02  -7.8395939872496329e-04  1.3405846220534629e-03  -4.4177999033527489e-02  -5.6301073204077130e-02  -6.7952229793968547e-02  -7.8309574519469280e-02  -8.9216461545672185e-02  -9.9104145060052162e-02  -1.0905936292799279e-01  -1.2065881120024205e-01  -1.3742364006242855e-01  -1.3230101475741321e-01  -1.4398025312607976e-01  -1.5571428281174787e-01  -1.2240129541421360e-01  -1.6760200214198859e-01  -8.1966420830087011e-02  -1.0283770454736707e-01  -6.0147610860105005e-02  -3.7650949878091741e-02  1.2752492065146656e-01  -1.8450240821963140e-01  1.6763862194502366e-03  1.1751925464208772e-01  4.4600916220170189e-03  -1.5202134730828626e-01  1.3567607974288506e-03  1.2765786933036813e-01  -1.5196589125921645e-01  -1.5162047362902023e-01  -1.5111637903713276e-01  -1.5166464433933746e-01  -1.5114674343692378e-01  -1.5201668397161738e-01  -1.5136731329443198e-01  -1.5245922448022464e-01  -1.5166863606678249e-01  -1.5274574710815489e-01  -1.5175632375096340e-01  -1.5260017643574475e-01  -1.5139501500825592e-01  -1.5191554733377871e-01  -1.5055408509125609e-01  -1.5084120095708478e-01  -1.4926762352805636e-01  -1.4947370083871592e-01  -1.4773447871114004e-01  -1.4778399765794711e-01  -1.4567597633207380e-01  -1.4972009226132332e-01  -1.4569871114611485e-01  -1.4327146653480627e-01  -1.4770458104629761e-01  -1.5007808180729171e-01  -1.4298083979123041e-01  -1.4030396553014773e-01  -1.4023323610755431e-01  -1.3706001041471294e-01  -1.3685702350385801e-01  -1.3348466711196294e-01  -1.3308712472540518e-01  -1.2970470560450387e-01  -1.2891495410186890e-01  -1.2502948337594139e-01  -1.2415443587085674e-01  -1.2019015501173344e-01  -1.1906826489056827e-01  -1.1517614018108202e-01  -1.1370076462799827e-01  -1.0917747540819819e-01  -1.0790320725986617e-01  -1.0393563864699608e-01  -1.0200040869116957e-01  -9.8079733602961586e-02  -9.5839629239609925e-02  -9.2182677001361235e-02  -8.9534542252920846e-02  -8.6033512897314923e-02  -8.3118367183069974e-02  -1.4735097573156775e-01  -1.4979378225407147e-01  -7.9768067330666437e-02  -7.6328129743425857e-02  -7.3574808792151683e-02  -6.9850657293169194e-02  -6.7534158864266100e-02  -6.3759042713914998e-02  -6.1558037760233969e-02  -5.7527411444397998e-02  -5.5725032815502208e-02  -5.1418503463105586e-02  -1.3989966263492398e-01  -5.0075155782822491e-02  -4.5465642091360010e-02  -4.4629442460376458e-02  -3.9759236297844745e-02  -3.9456373832573333e-02  -3.4327740101452606e-02  -1.4660476863118430e-01  -1.4930399949169476e-01  -1.5314069333018410e-01  -3.4499464130001593e-02  -2.9141151986255418e-02  -1.5234656803841290e-01  -2.9692214364945787e-02  -2.4231827664640410e-02  -2.5256073849322960e-02  -1.9650570675792688e-02  -2.1022749144002102e-02  -1.5349048165028197e-02  -1.3018014426304725e-01  -1.7290558858997093e-02  -1.1397591768725502e-02  -1.3453357179921778e-02  -7.6842624443462550e-03  -9.9844936217066832e-03  -4.2677592824341875e-03  -1.4989638471325889e-01  -1.1606137760078958e-01  -6.7383386335294190e-03  -1.1529808821677636e-03  -1.4536239972544346e-01  -1.4898182306834923e-01  -1.4264527238461094e-01  -9.9641183255556834e-02  -4.0672162397515487e-03  1.8009969259611459e-03  -1.3243758888530923e-03  4.4773547671532700e-03  1.2363275045635120e-03  6.8009503368288400e-03  -2.9169576892309732e-02  4.7258988130437895e-03  -1.4117365475247711e-02  -4.6939486142795306e-02  3.6462447915008972e-03  8.9269487089524303e-03  1.2098902226616930e-02  1.4042376444028649e-02  1.0935698391339200e-02  1.5797246479872806e-02  1.2834059532736496e-02  1.7445047860827886e-02  1.4552912099783610e-02  1.8880455267947779e-02  1.6131560159190060e-02  2.0213180345051970e-02  1.7619150577076359e-02  2.1385708369349877e-02  1.8914232936691734e-02  2.2464142457527547e-02  2.0203839467356211e-02  2.3531868216791922e-02  2.1353879618001621e-02  2.4412751259959280e-02  2.2434833840965649e-02  2.5173856920817896e-02  2.3299567977295210e-02  2.5867221263164365e-02  -6.6085454963782028e-02  -8.2373041576644893e-02  2.4174342454777318e-02  2.6444810140559067e-02  2.4993679523930921e-02  2.6992094974917672e-02  -1.3589563793237544e-01  2.5714474656501059e-02  2.7433119698324359e-02  -9.9496879294420318e-02  -1.1723254016981645e-01  -1.4356735610845536e-01  -1.4522692953228264e-01  -1.5163139598045938e-01  -1.4926139842720151e-01  -1.5484955109388912e-01  -1.5230575380873909e-01  -1.5798347459216072e-01  -1.5473119575886340e-01  -1.6071293550387011e-01  -1.5667712771773257e-01  -1.6265131188001453e-01  -1.5767946276359276e-01  -1.6364614142456788e-01  -1.5798986547555668e-01  -1.6410658650746718e-01  -1.5794183822538471e-01  -1.6201910079669865e-01  -1.5560602028036541e-01  -1.5991410795108779e-01  -1.5428052972088507e-01  -1.5714597068735961e-01  -1.5165073118137173e-01  -1.5383820254692107e-01  -1.4860324056207894e-01  -1.5021172567894453e-01  -1.4531885319773188e-01  -1.4639494900442304e-01  -1.4174953363770479e-01  -1.4847561149658703e-01  -1.4041506232094364e-01  -1.3708566754958079e-01  -1.3804135512208965e-01  -1.3366996127435221e-01  -1.3430666074234529e-01  -1.3017423446410897e-01  -1.3070715838612976e-01  -1.2666418964109052e-01  -1.2944747279273489e-01  -1.2745952651988171e-01  -1.2315008087160301e-01  -1.2306440850843772e-01  -1.1937572012776994e-01  -1.1926884414324433e-01  -1.1568421941101169e-01  -1.1560915323601366e-01  -1.1207531863818927e-01  -1.1174400748674172e-01  -1.0841871237226872e-01  -1.5981419806647046e-01  -1.0789719323833152e-01  -1.0468021801237562e-01  -1.0496001986462336e-01  -1.0131281309349163e-01  -1.0094676849757743e-01  -9.7636570386451474e-02  -9.7202594300448572e-02  -9.3950411567138584e-02  -1.6924713498995936e-01  -1.5350634568263213e-01  -1.6658635403349972e-01  -1.6540271240892740e-01  -9.3362759082375735e-02  -9.0201194182365163e-02  -9.0678114357654535e-02  -8.6920842837562629e-02  -8.6417981893551432e-02  -8.3148567919836991e-02  -8.2576843729213603e-02  -7.9326518981596733e-02  -7.9883689425701371e-02  -7.6061478267588717e-02  -7.5404781391431738e-02  -7.2185391686048636e-02  -1.1555935532110137e-01  -7.1454642153807021e-02  -6.8315148957295124e-02  -1.5924295806896344e-01  -1.5071237122784403e-01  -1.0159186646165433e-01  -1.5093721014010922e-01  -6.7559948046364282e-02  -6.4336578694515464e-02  -6.5346143739646728e-02  -6.1122468547384748e-02  -6.0416502971251049e-02  -5.7041083855304320e-02  -5.7758077846286726e-02  -5.3667112397894789e-02  -5.2956157283804435e-02  -4.9583261239144701e-02  -1.3464645345314855e-01  -4.8881312743739476e-02  -4.5434399817128719e-02  -7.6400669209556266e-02  -1.1442779304821336e-01  -6.5309145538993973e-02  -1.2643656940709830e-01  -4.6159459239006148e-02  -4.1984739062937822e-02  -4.1273762920143960e-02  -3.7818029725900357e-02  2.6281650542686580e-02  2.7794355151738951e-02  2.6785023187784376e-02  2.8088243877640896e-02  2.7222937511244449e-02  2.8311628301753877e-02  -3.6953220449514705e-02  -3.3538439467428453e-02  -3.9580452739943546e-02  -3.4293581048394015e-02  -3.0036788163084627e-02  -2.9417482231911877e-02  -2.5810944931406857e-02  -1.5308791888373119e-01  -1.4399485913779861e-01  -1.0042856661237191e-01  2.4054718851219240e-02  2.7571067435382037e-02  2.8457691313944898e-02  1.6734250598282464e-02  2.7573408847017682e-02  2.9273160454510287e-02  2.9229615083209853e-02  2.8531268834190961e-02  2.9132739228973650e-02  2.8537420950797174e-02  2.8977125898153735e-02  2.8465003943850618e-02  2.8758687512383984e-02  2.8321810643586392e-02  2.8481487034450841e-02  2.8098839906277321e-02  2.8135060006987088e-02  2.7803344019079052e-02  2.7729626860663156e-02  2.7436354146501748e-02  2.7264476703971367e-02  2.7001928564921868e-02  2.6740509338887667e-02  2.6490799050272337e-02  2.6145068654048493e-02  2.5903590154334580e-02  2.5499394970341351e-02  2.5243737104657743e-02  2.4771879323312766e-02  -2.5190920004902039e-02  -2.1560843730995718e-02  -2.1917638712948762e-02  -1.7796880300114063e-02  -1.7240818493936806e-