<?xml version="1.0"?>
<VTKFile type="UnstructuredGrid"  version="0.1"  >
<UnstructuredGrid>
<Piece  NumberOfPoints="2945" NumberOfCells="5525">
<Points>
<DataArray  type="Float64"  NumberOfComponents="3"  format="ascii">0 0.1 0  0.95 0.1 0  1 0.1 0  1 0 0  1.5 0 0  3 0 0  3 0.3 0  0 0.3 0  0.0197424558707114 0.1 0  0.03915669042224804 0.1 0  0.05824816022699029 0.1 0  0.07702223050332387 0.1 0  0.09548417327144595 0.1 0  0.1136391897583987 0.1 0  0.1314923700144587 0.1 0  0.1490487330862866 0.1 0  0.1663132263225292 0.1 0  0.1832906857273058 0.1 0  0.1999858946008978 0.1 0  0.216403545770297 0.1 0  0.2325482404045023 0.1 0  0.2484245348165176 0.1 0  0.2640368740372501 0.1 0  0.2793896589642241 0.1 0  0.2944872056237027 0.1 0  0.3093337469555254 0.1 0  0.3239334613687816 0.1 0  0.3382904528528069 0.1 0  0.3524087553122972 0.1 0  0.3662923366391824 0.1 0  0.3799451014768399 0.1 0  0.393370886920506 0.1 0  0.4065734648871676 0.1 0  0.419556546320114 0.1 0  0.4323237821343415 0.1 0  0.4448787573056132 0.1 0  0.4572250047274954 0.1 0  0.4693659926332938 0.1 0  0.4813051343276231 0.1 0  0.4930457849308193 0.1 0  0.5045912455271677 0.1 0  0.5159447600209797 0.1 0  0.5271095174127136 0.1 0  0.5380886618453393 0.1 0  0.5488852725463512 0.1 0  0.5595023868312478 0.1 0  0.5699429904313016 0.1 0  0.5802100167387366 0.1 0  0.5903063508274641 0.1 0  0.6002348329443006 0.1 0  0.6099982499579832 0.1 0  0.6195993483501782 0.1 0  0.6290408246013842 0.1 0  0.6383253354321616 0.1 0  0.6474554910757137 0.1 0  0.6564338522440513 0.1 0  0.6652629482939147 0.1 0  0.6739452579188948 0.1 0  0.6824832240165607 0.1 0  0.6908792415022103 0.1 0  0.6991356755989045 0.1 0  0.7072548438546967 0.1 0  0.7152390281534421 0.1 0  0.7230904746196039 0.1 0  0.7308113906759266 0.1 0  0.7384039435269326 0.1 0  0.7458702676581656 0.1 0  0.7532124631720397 0.1 0  0.7604325921167397 0.1 0  0.7675326856666862 0.1 0  0.7745147374421916 0.1 0  0.7813807123989068 0.1 0  0.7881325374362798 0.1 0  0.7947721131625659 0.1 0  0.8013013031866276 0.1 0  0.8077219449067021 0.1 0  0.8140358419942376 0.1 0  0.8202447685401882 0.1 0  0.8263504700910924 0.1 0  0.8323546643163114 0.1 0  0.8382590362474568 0.1 0  0.8440652473522128 0.1 0  0.8497749272799842 0.1 0  0.8553896837646281 0.1 0  0.8609110933285474 0.1 0  0.866340708855119 0.1 0  0.8716800550492284 0.1 0  0.8769306339052932 0.1 0  0.8820939206038667 0.1 0  0.8871713655604893 0.1 0  0.8921643975475726 0.1 0  0.8970744196575535 0.1 0  0.9019028106970642 0.1 0  0.9066509291259979 0.1 0  0.9113201098984042 0.1 0  0.9159116634553873 0.1 0  0.9204268818729691 0.1 0  0.9248670319440222 0.1 0  0.9292333656649013 0.1 0  0.9335271075812669 0.1 0  0.9377494640511216 0.1 0  0.941901623463222 0.1 0  0.9459847526686701 0.1 0  0.9538461538461205 0.1 0  0.9576923076922409 0.1 0  0.9615384615384381 0.1 0  0.9653846153846337 0.1 0  0.9692307692307542 0.1 0  0.9730769230768747 0.1 0  0.9769230769229952 0.1 0  0.9807692307691157 0.1 0  0.9846153846152361 0.1 0  0.9884615384614317 0.1 0  0.9923076923076356 0.1 0  0.9961538461538395 0.1 0  1 0.09591793123533533 0  1 0.09133596463859224 0  1 0.08619288104391448 0  1 0.08041996484521211 0  1 0.07394008421771697 0  1 0.06666666567302955 0  1 0.05850252932209174 0  1 0.04933859630113544 0  1 0.03905242821848202 0  1 0.02750659386753798 0  1 0.01454683679239736 0  1.015625 0 0  1.03125 0 0  1.046875 0 0  1.0625 0 0  1.078125 0 0  1.09375 0 0  1.109375 0 0  1.125 0 0  1.140625 0 0  1.15625 0 0  1.171875 0 0  1.1875 0 0  1.203125 0 0  1.21875 0 0  1.234375 0 0  1.25 0 0  1.265625 0 0  1.28125 0 0  1.296875 0 0  1.3125 0 0  1.328125 0 0  1.34375 0 0  1.359375 0 0  1.375 0 0  1.390625 0 0  1.40625 0 0  1.421875 0 0  1.4375 0 0  1.453125 0 0  1.46875 0 0  1.484375 0 0  1.515920751924515 0 0  1.531989369316721 0 0  1.54820720925872 0 0  1.564575665560501 0 0  1.581096138674279 0 0  1.597770029901263 0 0  1.614598783332311 0 0  1.631583831055205 0 0  1.64872661129721 0 0  1.666028606716533 0 0  1.683491276608443 0 0  1.701116134125304 0 0  1.718904673324128 0 0  1.736858414799339 0 0  1.754978895814663 0 0  1.773267661782904 0 0  1.791726281103402 0 0  1.810356325314689 0 0  1.8291593848892 0 0  1.848137076690385 0 0  1.867291007717254 0 0  1.886622833871288 0 0  1.90613418642363 0 0  1.925826753299799 0 0  1.945702199101513 0 0  1.96576223584749 0 0  1.986008569283268 0 0  2.006442931928877 0 0  2.02706707547783 0 0  2.047882750887917 0 0  2.06889175187935 0 0  2.090095860038271 0 0  2.111496891648636 0 0  2.133096679109554 0 0  2.154897066851056 0 0  2.176899916687499 0 0  2.199107102752146 0 0  2.22152053937028 0 0  2.244142122958061 0 0  2.266973806444078 0 0  2.290017523268154 0 0  2.313275249499252 0 0  2.336748971745516 0 0  2.360440702338606 0 0  2.384352453384031 0 0  2.408486280477412 0 0  2.432844240041185 0 0  2.457428414757088 0 0  2.482240901796653 0 0  2.507283830121838 0 0  2.532559332080812 0 0  2.558069568787417 0 0  2.583816724966441 0 0  2.60980299606584 0 0  2.636030600971886 0 0  2.662501790984011 0 0  2.689218818279327 0 0  2.716183964547616 0 0  2.743399548861297 0 0  2.77086788244719 0 0  2.798591312896326 0 0  2.826572223178268 0 0  2.854812990138617 0 0  2.883316031690714 0 0  2.912083780657189 0 0  2.941118704633482 0 0  2.970423276998917 0 0  3 0.02999999999994495 0  3 0.05999999999987042 0  3 0.089999999999783 0  3 0.119999999999701 0  3 0.149999999999619 0  3 0.179999999999692 0  3 0.2099999999997737 0  3 0.2399999999998511 0  3 0.2699999999999185 0  2.970138294777171 0.3 0  2.940375666438236 0.3 0  2.910711782853056 0.3 0  2.881146331305122 0.3 0  2.851678975030285 0.3 0  2.822309388626621 0.3 0  2.793037250095074 0.3 0  2.76386223529133 0.3 0  2.734784017903872 0.3 0  2.705802289276642 0.3 0  2.676916713794697 0.3 0  2.648126987654635 0.3 0  2.619432780406184 0.3 0  2.590833779385199 0.3 0  2.562329669847737 0.3 0  2.533920134950189 0.3 0  2.505604855727852 0.3 0  2.477383539822502 0.3 0  2.449255847639465 0.3 0  2.421221492569094 0.3 0  2.393280152486815 0.3 0  2.36543151914496 0.3 0  2.337675285481809 0.3 0  2.310011142385583 0.3 0  2.282438797441587 0.3 0  2.254957931061538 0.3 0  2.227568248063605 0.3 0  2.200269436651085 0.3 0  2.173061204949961 0.3 0  2.145943251515011 0.3 0  2.118915272469994 0.3 0  2.091976978084957 0.3 0  2.065128060700849 0.3 0  2.038368218849433 0.3 0  2.01169717777258 0.3 0  1.985114624111908 0.3 0  1.958620267850966 0.3 0  1.93221382054972 0.3 0  1.905894991850698 0.3 0  1.879663489459713 0.3 0  1.853519019126419 0.3 0  1.827461291053897 0.3 0  1.801490031354372 0.3 0  1.775604937580312 0.3 0  1.74980572560258 0.3 0  1.724092118631866 0.3 0  1.698463829173586 0.3 0  1.672920575782554 0.3 0  1.647462076974085 0.3 0  1.622088043536933 0.3 0  1.5967981978949 0.3 0  1.571592267767068 0.3 0  1.546469970305736 0.3 0  1.521431023814044 0.3 0  1.496475156230927 0.3 0  1.471602093687753 0.3 0  1.446811560490646 0.3 0  1.422103279101731 0.3 0  1.397476971708191 0.3 0  1.37293238939876 0.3 0  1.348469231419202 0.3 0  1.324087248732772 0.3 0  1.299786165921677 0.3 0  1.275565710847046 0.3 0  1.251425617644257 0.3 0  1.227365618676339 0.3 0  1.203385446174014 0.3 0  1.179484853067473 0.3 0  1.155663548773374 0.3 0  1.131921292279077 0.3 0  1.108257802159295 0.3 0  1.084672829009693 0.3 0  1.061166115303374 0.3 0  1.037737392995421 0.3 0  1.01438640299116 0.3 0  0.991112899770314 0.3 0  0.9679166155523955 0.3 0  0.944797284182564 0.3 0  0.921754678526042 0.3 0  0.8987885143602501 0.3 0  0.8758985548820624 0.3 0  0.8530845484099929 0.3 0  0.8303462351786988 0.3 0  0.8076833651172373 0.3 0  0.7850956864865304 0.3 0  0.7625829601354557 0.3 0  0.7401449314598274 0.3 0  0.717781337993959 0.3 0  0.6954919649675473 0.3 0  0.6732765357561226 0.3 0  0.6511348120768439 0.3 0  0.6290665642016573 0.3 0  0.6070715355430467 0.3 0  0.5851494825775325 0.3 0  0.5633001690203812 0.3 0  0.5415233562273221 0.3 0  0.5198187909431873 0.3 0  0.4981862401387795 0.3 0  0.4766254686134248 0.3 0  0.4551362360485234 0.3 0  0.4337182975262159 0.3 0  0.4123714223228037 0.3 0  0.3910953802377493 0.3 0  0.3698899313205595 0.3 0  0.3487548463710963 0.3 0  0.3276898864081783 0.3 0  0.3066948129116018 0.3 0  0.2857694003037476 0.3 0  0.2649134227095047 0.3 0  0.2441266417321288 0.3 0  0.2234088223399122 0.3 0  0.2027597568977288 0.3 0  0.1821792020676698 0.3 0  0.1616669305402443 0.3 0  0.1412227158799362 0.3 0  0.12084633013886 0.3 0  0.1005375673448281 0.3 0  0.08029618164595353 0.3 0  0.06012194778526769 0.3 0  0.04001466495039718 0.3 0  0.01997408913631205 0.3 0  0 0.2800000000000553 0  0 0.2600000000001105 0  0 0.2400000000001658 0  0 0.2200000000002211 0  0 0.2000000000002764 0  0 0.1800000000002244 0  0 0.1600000000001691 0  0 0.140000000000115 0  0 0.1200000000000564 0  1.133778471000506 0.01219539743990768 0  1.003741919047894 0.09354664821474232 0  0.9559421147150347 0.1035858189992458 0  0.9313792160389045 0.1037365237938103 0  0.9788461538460573 0.1033060829993555 0  0.9090102438250753 0.1037269304984056 0  0.8846304212778655 0.1043349840723655 0  0.8581503885465881 0.104741932962923 0  0.8286416220145676 0.1052762843984476 0  0.7982741772533339 0.1053575624517407 0  0.7708789559342691 0.1060290465840416 0  0.741870349714261 0.1078220590984258 0  0.7112469360040695 0.10685702926368 0  0.6783901541417233 0.1079959711853378 0  0.642884733623195 0.1075561996086514 0  0.6056235042367955 0.1085956039602543 0  0.5647007593786924 0.1083187281660325 0  1.1953125 0.01353164693413185 0  1.258148737344733 0.01268350115427042 0  1.320087046516829 0.01426312402966312 0  1.383495130751951 0.01432665475473204 0  1.4453125 0.01315663539200989 0  1.50886768312388 0.01395488397722681 0  0.9942307692307371 0.103330866937657 0  1.119309781943483 0.2802014914557878 0  1.572831235329714 0.01707210522554785 0  1.637611634353954 0.01209340368483431 0  1.709661292005932 0.0146870244871893 0  1.006561890631532 0.07068055446055937 0  1.784793444007901 0.01499371444634687 0  1.855459587353174 0.0
[...]
<PointData  Scalars="pressure"> 
<DataArray  type="Float64"  Name="pressure"  format="ascii">3.9903164055100787e-01  8.2560904963715653e-02  -6.0419941099878593e-03  9.6443953807742788e-02  1.7388102594193358e-01  0.0000000000000000e+00  0.0000000000000000e+00  3.9906117940284785e-01  3.9310893541695785e-01  3.8728439285785066e-01  3.8155629017751996e-01  3.7592298028598276e-01  3.7038278553218046e-01  3.6493416406282958e-01  3.5957549730663596e-01  3.5430520200483379e-01  3.4912182448165019e-01  3.4402367632230463e-01  3.3900930423070813e-01  3.3407728027497879e-01  3.2922601487972392e-01  3.2445411036687694e-01  3.1976001190135145e-01  3.1514234269413544e-01  3.1059953285814729e-01  3.0613028023612171e-01  3.0173301121124690e-01  2.9740644483453532e-01  2.9314890337730920e-01  2.8895918500604661e-01  2.8483614409642388e-01  2.8077772524189543e-01  2.7678290609676903e-01  2.7285015497069381e-01  2.6897831509142839e-01  2.6516551797619142e-01  2.6141096470476349e-01  2.5771259344048053e-01  2.5406975131762805e-01  2.5048072582306363e-01  2.4694381376318353e-01  2.4345791457059904e-01  2.4002189667223942e-01  2.3663415631937049e-01  2.3329315413524992e-01  2.2999797135858130e-01  2.2674687321059059e-01  2.2353891805543349e-01  2.2037236734218740e-01  2.1724606208946085e-01  2.1415896383367153e-01  2.1110958362702029e-01  2.0809642629662498e-01  2.0511876648940633e-01  2.0217487317527630e-01  1.9926379966429089e-01  1.9638445236095847e-01  1.9353437588425101e-01  1.9071546974335632e-01  1.8792189098173151e-01  1.8515712753485689e-01  1.8241800851406059e-01  1.7970349840021016e-01  1.7701230818490230e-01  1.7434419269793675e-01  1.7169533973922418e-01  1.6907144245764030e-01  1.6646482388270675e-01  1.6387580325203061e-01  1.6130646023178646e-01  1.5875211120179220e-01  1.5621735489799499e-01  1.5369506237934724e-01  1.5118758008787700e-01  1.4869400185679238e-01  1.4621338611264564e-01  1.4374547079633931e-01  1.4128817490824427e-01  1.3884224624424291e-01  1.3640658069786021e-01  1.3398257772580091e-01  1.3156702662937328e-01  1.2915902349236377e-01  1.2676133834404738e-01  1.2437148883059838e-01  1.2198801338107287e-01  1.1961600651896045e-01  1.1725110702090503e-01  1.1489211061889815e-01  1.1254141324383070e-01  1.1020070679243017e-01  1.0786974761668545e-01  1.0554691646294879e-01  1.0323689656943937e-01  1.0093885656244748e-01  9.8655556004573319e-02  9.6384932159016432e-02  9.4140216241614422e-02  9.1920309272866610e-02  8.9726783465905832e-02  8.7563760917769642e-02  8.5471952995166370e-02  8.3227758018985187e-02  8.0874887664294376e-02  7.9967711806567199e-02  7.9568977326261392e-02  7.9179354322548245e-02  7.8530125570371867e-02  7.7409076508727026e-02  7.5647024359217427e-02  7.3082251557003028e-02  6.9593618625025347e-02  6.5232907844373911e-02  5.7708922295152794e-02  6.4522591244534966e-02  1.7454310084688038e-02  4.7566805710518988e-02  5.9530167390956165e-02  6.8852890255764465e-02  7.5874887779639813e-02  8.1764531238864582e-02  8.6794456973680087e-02  9.0936306968282990e-02  9.4146333242402042e-02  9.6229409935088370e-02  9.6830551192893397e-02  9.5989308298033135e-02  9.6993424215392351e-02  9.9820559406000542e-02  1.0415551704518293e-01  1.0970771908010801e-01  1.1606287755827989e-01  1.2287285883064454e-01  1.2993246681270540e-01  1.3692886734966525e-01  1.4363137289039801e-01  1.4990122767262073e-01  1.5561986808425071e-01  1.6068725474669776e-01  1.6503166070924360e-01  1.6858247013199851e-01  1.7131140166198663e-01  1.7319913614679761e-01  1.7422804347958132e-01  1.7445177958741390e-01  1.7392063208076552e-01  1.7270367068906067e-01  1.7109364726284984e-01  1.6911300107865052e-01  1.6709937593892962e-01  1.6517578830373097e-01  1.6385022625615664e-01  1.6302997998763272e-01  1.6314734697572711e-01  1.6424655956224565e-01  1.6642529598124275e-01  1.6967230194316918e-01  1.7899367953101744e-01  1.8474219040841938e-01  1.9086016663009814e-01  1.9700473099069493e-01  2.0294011663089476e-01  2.0829835356086474e-01  2.1293467966097895e-01  2.1659468964917544e-01  2.1917199268828497e-01  2.2067460235351835e-01  2.2113718154348322e-01  2.2062555268440312e-01  2.1922920714301591e-01  2.1708528517966011e-01  2.1429574739346380e-01  2.1096743105571833e-01  2.0717527149239010e-01  2.0294038642675366e-01  1.9824481970714428e-01  1.9317585055162442e-01  1.8759799199841459e-01  1.8160467501202768e-01  1.7526474621073099e-01  1.6867298693680691e-01  1.6213915960986722e-01  1.5584686946619292e-01  1.5040753248337579e-01  1.4601001868914076e-01  1.4307143211933859e-01  1.4181237842224589e-01  1.4222333155810790e-01  1.4404423245504488e-01  1.4685224554795243e-01  1.5007408558077295e-01  1.5313256441446282e-01  1.5541238688223041e-01  1.5647291771595073e-01  1.5601045513974662e-01  1.5389795787790669e-01  1.5018448496801312e-01  1.4502528225677555e-01  1.3865420789334176e-01  1.3131767449062717e-01  1.2327793260455766e-01  1.1475168093213764e-01  1.0595644424155526e-01  9.7022037512748738e-02  8.8160594276350798e-02  7.9677399424416095e-02  7.1943459952386962e-02  6.5106331900257899e-02  5.9882116387770495e-02  5.6211408084960952e-02  5.4289445033884595e-02  5.3979905910880310e-02  5.4878554277517658e-02  5.6251577599162807e-02  5.7680833558672130e-02  5.8368827152937841e-02  5.7868008639155380e-02  5.5746596763858632e-02  5.1918085594891070e-02  4.6323627350871345e-02  3.9290073944814319e-02  3.0786664114018054e-02  2.1335683947120525e-02  1.0553759139914364e-02  0.0000000000000000e+00  0.0000000000000000e+00  0.0000000000000000e+00  0.0000000000000000e+00  0.0000000000000000e+00  0.0000000000000000e+00  0.0000000000000000e+00  0.0000000000000000e+00  0.0000000000000000e+00  8.8285308414098158e-04  1.1302379906301557e-03  2.5105603819107853e-03  5.6887762191671579e-03  1.1024923264517339e-02  1.8424137749842723e-02  2.7528612511445536e-02  3.7781568048786685e-02  4.8599239741035194e-02  5.9497564990751470e-02  7.0135421791018393e-02  8.0248407390204363e-02  8.9570357844209761e-02  9.7804364605310945e-02  1.0454868755742523e-01  1.0939429761718357e-01  1.1202057407823406e-01  1.1222864152216898e-01  1.1015699739670626e-01  1.0631477862463982e-01  1.0158318533087972e-01  9.7138016785091472e-02  9.4243127480965930e-02  9.3927411904895203e-02  9.6901239187632965e-02  1.0315099405989878e-01  1.1224942164109797e-01  1.2333831036570124e-01  1.3529833828454804e-01  1.4717077476244905e-01  1.5817123456013873e-01  1.6783975633401313e-01  1.7592427379040698e-01  1.8213690078608274e-01  1.8604041856652448e-01  1.8816393500802370e-01  1.8795187612425920e-01  1.8584321393622832e-01  1.8201555032348021e-01  1.7689302674779425e-01  1.7117411528075033e-01  1.6530105621823207e-01  1.5994414045758823e-01  1.5556523879494824e-01  1.5249631351131415e-01  1.5093126280665384e-01  1.5083659116551926e-01  1.5210388401036512e-01  1.5454572387463639e-01  1.5780479927281546e-01  1.6159692696199277e-01  1.6545978235394798e-01  1.6934054585745029e-01  1.7262136774962825e-01  1.7508461170918999e-01  1.7653052636509034e-01  1.7684875466710298e-01  1.7600709806830012e-01  1.7409365165685350e-01  1.7125371532297803e-01  1.6765492560231515e-01  1.6346000603386868e-01  1.5888664500856645e-01  1.5406663021338499e-01  1.4919821912304371e-01  1.4445322180919581e-01  1.4001541698968242e-01  1.3608971467561218e-01  1.3286321128716547e-01  1.3046647768681394e-01  1.2899956529256212e-01  1.2853599300463187e-01  1.2889015610744081e-01  1.3004700820838341e-01  1.3187414975444481e-01  1.3430117750369541e-01  1.3711684152978496e-01  1.4049537463941597e-01  1.4400781966833615e-01  1.4792323392349821e-01  1.5215836159713778e-01  1.5666878235492668e-01  1.6143109855856216e-01  1.6641193831007520e-01  1.7163816454548689e-01  1.7707059173354694e-01  1.8267366452189945e-01  1.8841794838244305e-01  1.9431418469829900e-01  2.0030232150044530e-01  2.0638652592620288e-01  2.1253731739428322e-01  2.1874348679023084e-01  2.2499771375871017e-01  2.3128804507363754e-01  2.3760083391568682e-01  2.4393004334214505e-01  2.5027207741926016e-01  2.5661897415382534e-01  2.6296469504895142e-01  2.6930594083418641e-01  2.7564287449475655e-01  2.8196979244294174e-01  2.8828587045648418e-01  2.9458863986706424e-01  3.0087750270917202e-01  3.0715141907775850e-01  3.1340802516576638e-01  3.1964861605831207e-01  3.2587069005942437e-01  3.3207510044164973e-01  3.3826097795481896e-01  3.4442779290870168e-01  3.5057585192616419e-01  3.5670461248075591e-01  3.6281404889296437e-01  3.6890406851023300e-01  3.7497460195243904e-01  3.8102562032698967e-01  3.8705708549485179e-01  3.9306895063279867e-01  3.9906109930837630e-01  3.9905989202483105e-01  3.9905686350368225e-01  3.9905215284788020e-01  3.9904641646204914e-01  3.9904068909440205e-01  3.9903596109047884e-01  3.9903295560612656e-01  3.9903174341356801e-01  1.3380875443084550e-01  4.1815925172429852e-02  7.8777040918899796e-02  9.0504605871811972e-02  7.0142289155322765e-02  1.0183072266018635e-01  1.1350466255543111e-01  1.2539121126051478e-01  1.3776937743439233e-01  1.4974189813048269e-01  1.5999078282863430e-01  1.7038953443046378e-01  1.8100210137286546e-01  1.9201745824422400e-01  2.0361556391557839e-01  2.1551674928329015e-01  2.2836284979779128e-01  1.5796492070125695e-01  1.7223710142561216e-01  1.7354539666817748e-01  1.6626474420783882e-01  1.6343933666284560e-01  1.7597272727660507e-01  4.9541815489745296e-02  1.3019307398067156e-01  1.9898988258773820e-01  2.1693770569461293e-01  2.1963424964414838e-01  7.7868133046036306e-02  2.0851314190806902e-01  1.9124469030599978e-01  2.4162064265734720e-01  1.6577896787833477e-01  1.4251374212734783e-01  1.6152904734600024e-01  1.4390592112664369e-01  1.7551002483594139e-01  2.5609518380203899e-01  1.7189363166267044e-01  1.4452973198439772e-01  2.7024361205431907e-01  1.1325154037440766e-01  1.5570680498505163e-01  1.5333305914841866e-01  1.3013002424449421e-01  2.8643286991938055e-01  1.4797645467999379e-01  1.6185396722250411e-01  3.0422654787650294e-01  1.7861545209526791e-01  1.1948528076764166e-01  1.8797258373997874e-01  1.3925099313044614e-01  8.3309901188317617e-02  3.2210597582567296e-01  1.7917271514059141e-01  1.5049540605223083e-01  1.6462526805982830e-01  1.5317939912170916e-01  5.7616711753927456e-02  3.4201365242591686e-01  3.5682238273555045e-01  1.5130420805937644e-01  5.3594633641144189e-02  5.7733625002784283e-02  1.8535537291503060e-01  1.1774030075962930e-01  9.2809925274570215e-02  2.0362516622220464e-01  8.4184937414108957e-02  7.5595108272023273e-02  2.2172543895614386e-01  1.0299347625571985e-01  5.4244632386133383e-02  2.4624844225424677e-01  1.1087184997440726e-01  2.7863536515624532e-01  9.4206284204636295e-02  3.1028121329937580e-01  6.5450437462324720e-02  3.2887203807554932e-01  3.6572869360410115e-01  3.4764737011689834e-01  3.2909955970159180e-02  3.9400173788815274e-01  2.6088627507958235e-03  3.7334238977954859e-01  9.2064625290660521e-02  8.2229047611231034e-03  3.5083900413224615e-02  6.5043679225926257e-02  1.0202451339714198e-01  1.3369295725732272e-01  1.3473416053848464e-01  1.7434978563428374e-01  2.3450360725732655e-01  2.5949419070786395e-01  2.9217608656070332e-01  1.6393641306115089e-01  1.7722285190075093e-01  1.7012600048003790e-01  1.5192001249830508e-01  3.3165084572352088e-01  3.1295080941764858e-01  9.9387254103861553e-02  1.1082180867768285e-01  2.9574109742629962e-01  6.8871596791003062e-02  3.7790353613115635e-01  1.0144279567711340e-01  1.3543737489688973e-01  2.7847029807353441e-01  1.5507862112554846e-01  3.9397728320746583e-01  1.5092678100293541e-01  2.6338253938604511e-01  1.4149914858580068e-01  1.5265220593443965e-01  1.8696665038272389e-01  1.7941560902334991e-01  2.4856787272838679e-01  2.0066995596545861e-01  2.1548307430675703e-01  2.2045883153515911e-01  2.3483639519330840e-01  2.1008900990773791e-01  7.7565553122595906e-03  2.2193778692878147e-01  2.0953596459332699e-01  1.9753945307164494e-01  1.8680684536290168e-01  1.7543550552072859e-01  1.6507819080734462e-01  1.5460321599824384e-01  1.4239526756558013e-01  1.4699574052425424e-01  1.3021121101715927e-01  1.1816176508007398e-01  1.0646436553978995e-01  1.6663606655292298e-01  9.5328235718200122e-02  1.7038356245295025e-01  1.7439791297115281e-01  1.6354727500597777e-01  1.6752933428563219e-01  3.9438916816961328e-01  6.2922488958220252e-02  -9.4873934092520689e-04  3.8438162032190593e-01  5.6344759100397906e-04  9.6930463236459735e-02  9.1152793824150515e-03  3.9453748027663599e-01  9.8772878405469208e-02  9.9618979273967304e-02  1.0292894929432839e-01  9.9665207796489644e-02  1.0319416860752383e-01  9.9335871839781431e-02  1.0363484187998588e-01  9.9148876617713905e-02  1.0432750043260430e-01  9.9717323428172674e-02  1.0602156806056566e-01  1.0157279025256127e-01  1.0923287101962212e-01  1.0509607671975292e-01  1.1386359484934715e-01  1.0994570836805345e-01  1.1952324345675919e-01  1.1533396397232380e-01  1.2486545378362429e-01  1.2051325639161170e-01  1.2952525349933600e-01  1.0990835302622869e-01  1.3410985970128894e-01  1.3775906774416219e-01  1.1582706957755554e-01  1.0477276126094752e-01  1.4241962535374228e-01  1.4514810438862247e-01  1.4904697333615660e-01  1.5122966071018379e-01  1.5521619506265993e-01  1.5636029885379779e-01  1.6033284812819787e-01  1.6058494510505414e-01  1.6485226314912527e-01  1.6362787642012078e-01  1.6849694209171573e-01  1.6730821251577996e-01  1.7160438082707205e-01  1.6976247930837332e-01  1.7385574986419808e-01  1.7100043016002817e-01  1.7513350817885723e-01  1.7242552876277936e-01  1.7547141877390265e-01  1.7263032403767029e-01  1.7477807103159027e-01  1.7212742195281422e-01  1.7316312421106556e-01  1.7109338305697408e-01  1.7082658377903021e-01  1.1203356845593072e-01  1.0260616604607946e-01  1.6979608943562177e-01  1.6811903212001669e-01  1.6838786084517232e-01  1.6566780933784830e-01  1.6733997279229787e-01  1.6389688900588828e-01  1.6676289109271769e-01  1.6290483987968390e-01  1.6694638833239822e-01  1.6309287560187821e-01  1.3979732040490001e-01  1.6781250169303907e-01  1.6449905962079059e-01  1.6929716213045357e-01  1.6696011612017947e-01  1.7115348296493607e-01  1.7016021303983889e-01  1.0992632110601151e-01  1.0188888021745271e-01  9.6348196909536804e-02  1.7298312594504217e-01  1.7366857938367150e-01  9.3723238314453006e-02  1.7450348805711871e-01  1.7702579599014182e-01  1.7546763352603925e-01  1.7979713379756107e-01  1.7573105718663048e-01  1.8172047744214020e-01  1.5530225725287303e-01  1.7487719513348945e-01  1.8260571298373357e-01  1.7389968743097634e-01  1.8271599785151973e-01  1.7235405477248827e-01  1.8210079065189091e-01  1.1759235353844531e-01  1.6514015324445541e-01  1.7082953720292668e-01  1.8092211556849488e-01  1.0986387419010432e-01  1.0170940092614471e-01  1.1639823616598179e-01  1.6953199407621583e-01  1.6842544888066480e-01  1.7971628397232081e-01  1.6715061151824606e-01  1.7852773722184589e-01  1.6644458980822691e-01  1.7746293755642642e-01  1.7131109243624762e-01  1.9295845055016136e-01  1.8648465801770847e-01  1.6025570466475678e-01  1.6659522133341159e-01  1.7672096845548249e-01  1.8809776057405378e-01  1.8645769559132547e-01  1.7653606239931421e-01  1.8493694135450983e-01  1.7672115601340277e-01  1.8350049610393712e-01  1.7701941987619918e-01  1.8185288269240479e-01  1.7735093749450534e-01  1.8020450960046336e-01  1.7762345050947287e-01  1.7819621955249784e-01  1.7770586923355347e-01  1.7600190987821931e-01  1.7743404952395347e-01  1.7324073250490338e-01  1.7678690560899815e-01  1.7045313768295703e-01  1.7572207377167656e-01  1.6753960075595384e-01  1.7457506986886781e-01  1.6487149226530709e-01  1.6289111402341439e-01  1.7029345153681444e-01  1.7278208444907350e-01  1.6233776522365898e-01  1.7017039062652270e-01  1.6003619696219376e-01  1.5784763313652225e-01  1.6690286976693824e-01  1.5752859382049850e-01  1.7740963727624343e-01  1.7479720753659395e-01  1.1176499690892192e-01  1.0882807470920251e-01  9.6429092744995781e-02  1.0219368721075400e-01  9.1491278255863645e-02  9.8209292976311091e-02  8.8053284025801912e-02  9.6114179582875811e-02  8.6541925823612975e-02  9.5182839674777101e-02  8.6788204942357061e-02  9.5869104695509855e-02  8.8447523609462675e-02  9.7434095296812878e-02  9.0710396567351984e-02  9.9192885548823675e-02  9.5048359082865241e-02  1.0331846904769311e-01  9.8649746792934007e-02  1.0563414433000777e-01  1.0256621579699540e-01  1.0914900162937148e-01  1.0668169103701088e-01  1.1283887244138514e-01  1.1088930475307499e-01  1.1659488901410127e-01  1.1513349377782862e-01  1.2052616463769565e-01  1.1306193909195698e-01  1.2254715584466337e-01  1.2615547034772473e-01  1.2450733144471053e-01  1.2976627256799173e-01  1.2846872414322402e-01  1.3341545866933169e-01  1.3227163267767000e-01  1.3705159575714740e-01  1.3496767940560178e-01  1.3557797681585412e-01  1.4067289196126626e-01  1.4022710871265739e-01  1.4456873083669880e-01  1.4538771175067447e-01  1.4901370001259368e-01  1.4844342852228209e-01  1.5265773310142769e-01  1.5244684518939539e-01  1.5637288078430409e-01  8.1361195085703567e-02  1.5642755680816467e-01  1.6016125340094287e-01  1.6052433535806873e-01  1.6414460569982930e-01  1.6393243350317038e-01  1.6780479336010540e-01  1.6772651036543321e-01  1.7149241068969295e-01  8.2830827562250145e-02  1.0450718977175807e-01  7.8105359851375442e-02  9.2213374717850488e-02  1.7156279415209941e-01  1.7524325939043109e-01  1.7531049804324259e-01  1.7902208638776110e-01  1.7905009058797233e-01  1.8276072936967250e-01  1.8292704601297161e-01  1.8656945875119210e-01  1.8647602194251348e-01  1.9021849988507378e-01  1.9047874403659645e-01  1.9404151959548882e-01  1.4997966465013574e-01  1.9443313938703899e-01  1.9787817241970948e-01  1.0065858015478361e-01  1.0406846880668016e-01  1.6460341017082564e-01  1.1009756753205747e-01  1.9834529775965240e-01  2.0184393263874539e-01  2.0115612875742558e-01  2.0533754043244759e-01  2.0575203020034458e-01  2.0937526207377297e-01  2.0897218006839863e-01  2.1298771901408545e-01  2.1342992783000239e-01  2.1701337900533837e-01  1.2771514821302035e-01  2.1748878963210844e-01  2.2112066525571158e-01  1.9035360098013068e-01  1.4929494806636373e-01  1.7051780099714553e-01  1.3634476754193037e-01  2.2063477145223895e-01  2.2474513945762548e-01  2.2525112324733262e-01  2.2886215204224436e-01  1.6296625664360564e-01  1.5479450365589278e-01  1.5765144690705982e-01  1.5106367330531326e-01  1.5083888095554779e-01  1.4620956372690894e-01  2.2955341987753319e-01  2.3310438624381755e-01  1.7407701104848539e-01  2.3252867883368813e-01  2.3673386905108065e-01  2.3720147865943433e-01  2.4092055644782689e-01  9.4874758022824537e-02  1.1167536880960380e-01  1.6402181102042257e-01  1.8108040818182045e-01  1.4262023271725652e-01  1.4018804843795277e-01  1.9667347692355769e-01  1.5873427514260710e-01  1.4515336750774083e-01  1.4170505224870186e-01  1.3321871543842961e-01  1.3714383188595805e-01  1.2589030250702510e-01  1.3188326481287699e-01  1.1871550876039724e-01  1.2630203359413655e-01  1.1248415925736145e-01  1.2093470787375486e-01  1.0745024364145908e-01  1.1591751645382044e-01  1.0387519209324010e-01  1.1172187790371139e-01  1.0186440471836285e-01  1.0811017284078697e-01  1.0109545209661004e-01  1.0492870089439080e-01  1.0085373578888862e-01  1.0162701220831850e-01  1.0052723500316341e-01  9.8150235686845125e-02  9.9764974920532365e-02  9.4126678041467404e-02  2.4141644793605324e-01  2.4514454214888826e-01  2.4490725341076847e-01  2.4899228861023967e-01  2.4944554167218058e-01  2.5323846441863024e-01  9.8305559034232770e-02  8.9885472912394196e-02  9.5424690732794665e-02  8.5205208686514322e-02  9.3455177672544049e-02  8.0995996810717952e-02  1.4947455082900044e-01  2.5246649815887029e-01  2.5709573360521382e-01  2.5774758346318843e-01  2.6161731787291237e-01  1.7951271563615023e-01  1.8325950584848769e-01  2.6111515469578955e-01  2.6557322456437554e-01  2.6594859777170193e-01  2.6998126108642456e-01  2.7035959705018009e-01  2.7439946444019614e-01  2.7401837