<?xml version="1.0"?>
<VTKFile type="UnstructuredGrid"  version="0.1"  >
<UnstructuredGrid>
<Piece  NumberOfPoints="2945" NumberOfCells="5525">
<Points>
<DataArray  type="Float64"  NumberOfComponents="3"  format="ascii">0 0.1 0  0.95 0.1 0  1 0.1 0  1 0 0  1.5 0 0  3 0 0  3 0.3 0  0 0.3 0  0.0197424558707114 0.1 0  0.03915669042224804 0.1 0  0.05824816022699029 0.1 0  0.07702223050332387 0.1 0  0.09548417327144595 0.1 0  0.1136391897583987 0.1 0  0.1314923700144587 0.1 0  0.1490487330862866 0.1 0  0.1663132263225292 0.1 0  0.1832906857273058 0.1 0  0.1999858946008978 0.1 0  0.216403545770297 0.1 0  0.2325482404045023 0.1 0  0.2484245348165176 0.1 0  0.2640368740372501 0.1 0  0.2793896589642241 0.1 0  0.2944872056237027 0.1 0  0.3093337469555254 0.1 0  0.3239334613687816 0.1 0  0.3382904528528069 0.1 0  0.3524087553122972 0.1 0  0.3662923366391824 0.1 0  0.3799451014768399 0.1 0  0.393370886920506 0.1 0  0.4065734648871676 0.1 0  0.419556546320114 0.1 0  0.4323237821343415 0.1 0  0.4448787573056132 0.1 0  0.4572250047274954 0.1 0  0.4693659926332938 0.1 0  0.4813051343276231 0.1 0  0.4930457849308193 0.1 0  0.5045912455271677 0.1 0  0.5159447600209797 0.1 0  0.5271095174127136 0.1 0  0.5380886618453393 0.1 0  0.5488852725463512 0.1 0  0.5595023868312478 0.1 0  0.5699429904313016 0.1 0  0.5802100167387366 0.1 0  0.5903063508274641 0.1 0  0.6002348329443006 0.1 0  0.6099982499579832 0.1 0  0.6195993483501782 0.1 0  0.6290408246013842 0.1 0  0.6383253354321616 0.1 0  0.6474554910757137 0.1 0  0.6564338522440513 0.1 0  0.6652629482939147 0.1 0  0.6739452579188948 0.1 0  0.6824832240165607 0.1 0  0.6908792415022103 0.1 0  0.6991356755989045 0.1 0  0.7072548438546967 0.1 0  0.7152390281534421 0.1 0  0.7230904746196039 0.1 0  0.7308113906759266 0.1 0  0.7384039435269326 0.1 0  0.7458702676581656 0.1 0  0.7532124631720397 0.1 0  0.7604325921167397 0.1 0  0.7675326856666862 0.1 0  0.7745147374421916 0.1 0  0.7813807123989068 0.1 0  0.7881325374362798 0.1 0  0.7947721131625659 0.1 0  0.8013013031866276 0.1 0  0.8077219449067021 0.1 0  0.8140358419942376 0.1 0  0.8202447685401882 0.1 0  0.8263504700910924 0.1 0  0.8323546643163114 0.1 0  0.8382590362474568 0.1 0  0.8440652473522128 0.1 0  0.8497749272799842 0.1 0  0.8553896837646281 0.1 0  0.8609110933285474 0.1 0  0.866340708855119 0.1 0  0.8716800550492284 0.1 0  0.8769306339052932 0.1 0  0.8820939206038667 0.1 0  0.8871713655604893 0.1 0  0.8921643975475726 0.1 0  0.8970744196575535 0.1 0  0.9019028106970642 0.1 0  0.9066509291259979 0.1 0  0.9113201098984042 0.1 0  0.9159116634553873 0.1 0  0.9204268818729691 0.1 0  0.9248670319440222 0.1 0  0.9292333656649013 0.1 0  0.9335271075812669 0.1 0  0.9377494640511216 0.1 0  0.941901623463222 0.1 0  0.9459847526686701 0.1 0  0.9538461538461205 0.1 0  0.9576923076922409 0.1 0  0.9615384615384381 0.1 0  0.9653846153846337 0.1 0  0.9692307692307542 0.1 0  0.9730769230768747 0.1 0  0.9769230769229952 0.1 0  0.9807692307691157 0.1 0  0.9846153846152361 0.1 0  0.9884615384614317 0.1 0  0.9923076923076356 0.1 0  0.9961538461538395 0.1 0  1 0.09591793123533533 0  1 0.09133596463859224 0  1 0.08619288104391448 0  1 0.08041996484521211 0  1 0.07394008421771697 0  1 0.06666666567302955 0  1 0.05850252932209174 0  1 0.04933859630113544 0  1 0.03905242821848202 0  1 0.02750659386753798 0  1 0.01454683679239736 0  1.015625 0 0  1.03125 0 0  1.046875 0 0  1.0625 0 0  1.078125 0 0  1.09375 0 0  1.109375 0 0  1.125 0 0  1.140625 0 0  1.15625 0 0  1.171875 0 0  1.1875 0 0  1.203125 0 0  1.21875 0 0  1.234375 0 0  1.25 0 0  1.265625 0 0  1.28125 0 0  1.296875 0 0  1.3125 0 0  1.328125 0 0  1.34375 0 0  1.359375 0 0  1.375 0 0  1.390625 0 0  1.40625 0 0  1.421875 0 0  1.4375 0 0  1.453125 0 0  1.46875 0 0  1.484375 0 0  1.515920751924515 0 0  1.531989369316721 0 0  1.54820720925872 0 0  1.564575665560501 0 0  1.581096138674279 0 0  1.597770029901263 0 0  1.614598783332311 0 0  1.631583831055205 0 0  1.64872661129721 0 0  1.666028606716533 0 0  1.683491276608443 0 0  1.701116134125304 0 0  1.718904673324128 0 0  1.736858414799339 0 0  1.754978895814663 0 0  1.773267661782904 0 0  1.791726281103402 0 0  1.810356325314689 0 0  1.8291593848892 0 0  1.848137076690385 0 0  1.867291007717254 0 0  1.886622833871288 0 0  1.90613418642363 0 0  1.925826753299799 0 0  1.945702199101513 0 0  1.96576223584749 0 0  1.986008569283268 0 0  2.006442931928877 0 0  2.02706707547783 0 0  2.047882750887917 0 0  2.06889175187935 0 0  2.090095860038271 0 0  2.111496891648636 0 0  2.133096679109554 0 0  2.154897066851056 0 0  2.176899916687499 0 0  2.199107102752146 0 0  2.22152053937028 0 0  2.244142122958061 0 0  2.266973806444078 0 0  2.290017523268154 0 0  2.313275249499252 0 0  2.336748971745516 0 0  2.360440702338606 0 0  2.384352453384031 0 0  2.408486280477412 0 0  2.432844240041185 0 0  2.457428414757088 0 0  2.482240901796653 0 0  2.507283830121838 0 0  2.532559332080812 0 0  2.558069568787417 0 0  2.583816724966441 0 0  2.60980299606584 0 0  2.636030600971886 0 0  2.662501790984011 0 0  2.689218818279327 0 0  2.716183964547616 0 0  2.743399548861297 0 0  2.77086788244719 0 0  2.798591312896326 0 0  2.826572223178268 0 0  2.854812990138617 0 0  2.883316031690714 0 0  2.912083780657189 0 0  2.941118704633482 0 0  2.970423276998917 0 0  3 0.02999999999994495 0  3 0.05999999999987042 0  3 0.089999999999783 0  3 0.119999999999701 0  3 0.149999999999619 0  3 0.179999999999692 0  3 0.2099999999997737 0  3 0.2399999999998511 0  3 0.2699999999999185 0  2.970138294777171 0.3 0  2.940375666438236 0.3 0  2.910711782853056 0.3 0  2.881146331305122 0.3 0  2.851678975030285 0.3 0  2.822309388626621 0.3 0  2.793037250095074 0.3 0  2.76386223529133 0.3 0  2.734784017903872 0.3 0  2.705802289276642 0.3 0  2.676916713794697 0.3 0  2.648126987654635 0.3 0  2.619432780406184 0.3 0  2.590833779385199 0.3 0  2.562329669847737 0.3 0  2.533920134950189 0.3 0  2.505604855727852 0.3 0  2.477383539822502 0.3 0  2.449255847639465 0.3 0  2.421221492569094 0.3 0  2.393280152486815 0.3 0  2.36543151914496 0.3 0  2.337675285481809 0.3 0  2.310011142385583 0.3 0  2.282438797441587 0.3 0  2.254957931061538 0.3 0  2.227568248063605 0.3 0  2.200269436651085 0.3 0  2.173061204949961 0.3 0  2.145943251515011 0.3 0  2.118915272469994 0.3 0  2.091976978084957 0.3 0  2.065128060700849 0.3 0  2.038368218849433 0.3 0  2.01169717777258 0.3 0  1.985114624111908 0.3 0  1.958620267850966 0.3 0  1.93221382054972 0.3 0  1.905894991850698 0.3 0  1.879663489459713 0.3 0  1.853519019126419 0.3 0  1.827461291053897 0.3 0  1.801490031354372 0.3 0  1.775604937580312 0.3 0  1.74980572560258 0.3 0  1.724092118631866 0.3 0  1.698463829173586 0.3 0  1.672920575782554 0.3 0  1.647462076974085 0.3 0  1.622088043536933 0.3 0  1.5967981978949 0.3 0  1.571592267767068 0.3 0  1.546469970305736 0.3 0  1.521431023814044 0.3 0  1.496475156230927 0.3 0  1.471602093687753 0.3 0  1.446811560490646 0.3 0  1.422103279101731 0.3 0  1.397476971708191 0.3 0  1.37293238939876 0.3 0  1.348469231419202 0.3 0  1.324087248732772 0.3 0  1.299786165921677 0.3 0  1.275565710847046 0.3 0  1.251425617644257 0.3 0  1.227365618676339 0.3 0  1.203385446174014 0.3 0  1.179484853067473 0.3 0  1.155663548773374 0.3 0  1.131921292279077 0.3 0  1.108257802159295 0.3 0  1.084672829009693 0.3 0  1.061166115303374 0.3 0  1.037737392995421 0.3 0  1.01438640299116 0.3 0  0.991112899770314 0.3 0  0.9679166155523955 0.3 0  0.944797284182564 0.3 0  0.921754678526042 0.3 0  0.8987885143602501 0.3 0  0.8758985548820624 0.3 0  0.8530845484099929 0.3 0  0.8303462351786988 0.3 0  0.8076833651172373 0.3 0  0.7850956864865304 0.3 0  0.7625829601354557 0.3 0  0.7401449314598274 0.3 0  0.717781337993959 0.3 0  0.6954919649675473 0.3 0  0.6732765357561226 0.3 0  0.6511348120768439 0.3 0  0.6290665642016573 0.3 0  0.6070715355430467 0.3 0  0.5851494825775325 0.3 0  0.5633001690203812 0.3 0  0.5415233562273221 0.3 0  0.5198187909431873 0.3 0  0.4981862401387795 0.3 0  0.4766254686134248 0.3 0  0.4551362360485234 0.3 0  0.4337182975262159 0.3 0  0.4123714223228037 0.3 0  0.3910953802377493 0.3 0  0.3698899313205595 0.3 0  0.3487548463710963 0.3 0  0.3276898864081783 0.3 0  0.3066948129116018 0.3 0  0.2857694003037476 0.3 0  0.2649134227095047 0.3 0  0.2441266417321288 0.3 0  0.2234088223399122 0.3 0  0.2027597568977288 0.3 0  0.1821792020676698 0.3 0  0.1616669305402443 0.3 0  0.1412227158799362 0.3 0  0.12084633013886 0.3 0  0.1005375673448281 0.3 0  0.08029618164595353 0.3 0  0.06012194778526769 0.3 0  0.04001466495039718 0.3 0  0.01997408913631205 0.3 0  0 0.2800000000000553 0  0 0.2600000000001105 0  0 0.2400000000001658 0  0 0.2200000000002211 0  0 0.2000000000002764 0  0 0.1800000000002244 0  0 0.1600000000001691 0  0 0.140000000000115 0  0 0.1200000000000564 0  1.133778471000506 0.01219539743990768 0  1.003741919047894 0.09354664821474232 0  0.9559421147150347 0.1035858189992458 0  0.9313792160389045 0.1037365237938103 0  0.9788461538460573 0.1033060829993555 0  0.9090102438250753 0.1037269304984056 0  0.8846304212778655 0.1043349840723655 0  0.8581503885465881 0.104741932962923 0  0.8286416220145676 0.1052762843984476 0  0.7982741772533339 0.1053575624517407 0  0.7708789559342691 0.1060290465840416 0  0.741870349714261 0.1078220590984258 0  0.7112469360040695 0.10685702926368 0  0.6783901541417233 0.1079959711853378 0  0.642884733623195 0.1075561996086514 0  0.6056235042367955 0.1085956039602543 0  0.5647007593786924 0.1083187281660325 0  1.1953125 0.01353164693413185 0  1.258148737344733 0.01268350115427042 0  1.320087046516829 0.01426312402966312 0  1.383495130751951 0.01432665475473204 0  1.4453125 0.01315663539200989 0  1.50886768312388 0.01395488397722681 0  0.9942307692307371 0.103330866937657 0  1.119309781943483 0.2802014914557878 0  1.572831235329714 0.01707210522554785 0  1.637611634353954 0.01209340368483431 0  1.709661292005932 0.0146870244871893 0  1.006561890631532 0.07068055446055937 0  1.784793444007901 0.01499371444634687 0  1.855459587353174 0.0
[...]
<PointData  Scalars="pressure"> 
<DataArray  type="Float64"  Name="pressure"  format="ascii">-1.0318959114228109e-01  -4.4686494526893838e-01  -3.4229390549574001e-01  -3.1167425214985955e-01  -1.2516827086672350e-01  0.0000000000000000e+00  0.0000000000000000e+00  -1.0317244284606771e-01  -1.0911231119568250e-01  -1.1493674878708574e-01  -1.2066459166364685e-01  -1.2629747231831190e-01  -1.3183702951209458e-01  -1.3728481307635554e-01  -1.4264240198475941e-01  -1.4791135728469487e-01  -1.5309313940218244e-01  -1.5818934755158545e-01  -1.6320144443589885e-01  -1.6813084813995746e-01  -1.7297908088470113e-01  -1.7774754215784072e-01  -1.8243771825105345e-01  -1.8705098397884257e-01  -1.9158883226621862e-01  -1.9605257770903331e-01  -2.0044371577249384e-01  -2.0476353715174717e-01  -2.0901361993075768e-01  -2.1319522357894966e-01  -2.1730948436506059e-01  -2.2135829960699704e-01  -2.2534276688437402e-01  -2.2926442937332378e-01  -2.3312449552479156e-01  -2.3692450642156457e-01  -2.4066596368219417e-01  -2.4435012373822107e-01  -2.4797862103771390e-01  -2.5155235037472584e-01  -2.5507367795596297e-01  -2.5854358758330370e-01  -2.6196356693070438e-01  -2.6533513123288149e-01  -2.6866002633011649e-01  -2.7193959022098912e-01  -2.7517551656840700e-01  -2.7836934863315232e-01  -2.8152292709271753e-01  -2.8463771008480632e-01  -2.8771548229221505e-01  -2.9075776149108445e-01  -2.9376649616343381e-01  -2.9674327086961716e-01  -2.9969021248594524e-01  -3.0260876782656898e-01  -3.0550098287230243e-01  -3.0836873155295064e-01  -3.1121441375877329e-01  -3.1403836989459560e-01  -3.1684557992208007e-01  -3.1963429727807002e-01  -3.2240901792896742e-01  -3.2517136447100381e-01  -3.2792287075290327e-01  -3.3066735016474302e-01  -3.3340647266495993e-01  -3.3613866475846144e-01  -3.3887035142034833e-01  -3.4160384233493274e-01  -3.4434128977551937e-01  -3.4708423361731561e-01  -3.4983150553062942e-01  -3.5259276132515999e-01  -3.5536667516461196e-01  -3.5815698328769485e-01  -3.6096655837523095e-01  -3.6379773641396701e-01  -3.6665358009792071e-01  -3.6953860018803592e-01  -3.7245496121909116e-01  -3.7540512165840506e-01  -3.7839560496600649e-01  -3.8143081089231679e-01  -3.8451216550804174e-01  -3.8764652951003681e-01  -3.9084153896470014e-01  -3.9409921048747892e-01  -3.9742436174907131e-01  -4.0083492669528925e-01  -4.0432989493150906e-01  -4.0792210758377956e-01  -4.1161956933612670e-01  -4.1544458990430971e-01  -4.1940596238519512e-01  -4.2352154571740463e-01  -4.2782813626249194e-01  -4.3234833267781125e-01  -4.3711204586029123e-01  -4.4219152953201291e-01  -4.4765453435875174e-01  -4.5313070203292527e-01  -4.6245581057209101e-01  -4.7791374829537753e-01  -5.0182812589949644e-01  -5.0939741366024249e-01  -5.0771142299134553e-01  -4.9777844818940314e-01  -4.8214914197965919e-01  -4.6238510846938585e-01  -4.4028699624163398e-01  -4.1700340721421680e-01  -3.9367412790849104e-01  -3.7234355399900315e-01  -3.4526236843962049e-01  -3.4251048696963848e-01  -3.2425117402590803e-01  -3.1885308348328129e-01  -3.1507558109925460e-01  -3.1287941648213718e-01  -3.1146931090704083e-01  -3.1054538491946493e-01  -3.1007167600251340e-01  -3.1005604939335718e-01  -3.1050422684458828e-01  -3.1132011626888723e-01  -3.1212907822114827e-01  -3.1307755657343822e-01  -3.1392177029082391e-01  -3.1476026127680234e-01  -3.1565501473548740e-01  -3.1653633842195128e-01  -3.1724364955168882e-01  -3.1767411133725848e-01  -3.1766033983562003e-01  -3.1699592807114374e-01  -3.1548610738473304e-01  -3.1294793494229911e-01  -3.0918774063896037e-01  -3.0404831826185352e-01  -2.9743856393340617e-01  -2.8937447046773962e-01  -2.7990965886805530e-01  -2.6914852478229789e-01  -2.5731563423243514e-01  -2.4470685101437842e-01  -2.3150005640914764e-01  -2.1824163938982546e-01  -2.0504088635220108e-01  -1.9230459707536715e-01  -1.8015897514265256e-01  -1.6905821177721275e-01  -1.5888019019904273e-01  -1.4986638038789754e-01  -1.4200695941136127e-01  -1.3530797728941066e-01  -1.2972511467331874e-01  -1.2148636165928220e-01  -1.1862650818315207e-01  -1.1646400577668928e-01  -1.1487397276473414e-01  -1.1372499734781381e-01  -1.1281886724615027e-01  -1.1206635301575356e-01  -1.1123625715323861e-01  -1.1026852510530033e-01  -1.0900844653690560e-01  -1.0734620785572896e-01  -1.0520673952647690e-01  -1.0254434011218858e-01  -9.9353009928036431e-02  -9.5662383104296880e-02  -9.1536584953649192e-02  -8.7073464533926476e-02  -8.2413168172912624e-02  -7.7619299210509626e-02  -7.2947057771829596e-02  -6.8430677001526649e-02  -6.4223969806256040e-02  -6.0438393032030122e-02  -5.7110355147759639e-02  -5.4310209928382536e-02  -5.1991627256679593e-02  -5.0201230998357965e-02  -4.8861020373353763e-02  -4.7922826657046627e-02  -4.7319783831615898e-02  -4.6974432574656999e-02  -4.6790400470453485e-02  -4.6680137773198474e-02  -4.6554017121712470e-02  -4.6326911644913968e-02  -4.5919773921316291e-02  -4.5263517597310801e-02  -4.4309110992361470e-02  -4.3017524866990418e-02  -4.1382822148397697e-02  -3.9419541977993855e-02  -3.7168439667343879e-02  -3.4688127669200521e-02  -3.2062022760718283e-02  -2.9378462411842429e-02  -2.6739849517430216e-02  -2.4219289714699149e-02  -2.1891777946153476e-02  -1.9828043395775333e-02  -1.8062160330206550e-02  -1.6556029554851075e-02  -1.5380535394150923e-02  -1.4415133111234208e-02  -1.3690778877822165e-02  -1.3103391078535219e-02  -1.2585294024409907e-02  -1.2116649851712673e-02  -1.1574035179636420e-02  -1.0959386886623417e-02  -1.0218756606839166e-02  -9.3121156342479434e-03  -8.2221292065288668e-03  -6.9720916634256700e-03  -5.6264015916221034e-03  -4.2190714410365428e-03  -2.7857514703727398e-03  -1.2991016918592793e-03  0.0000000000000000e+00  0.0000000000000000e+00  0.0000000000000000e+00  0.0000000000000000e+00  0.0000000000000000e+00  0.0000000000000000e+00  0.0000000000000000e+00  0.0000000000000000e+00  0.0000000000000000e+00  -5.0407802133161034e-04  -9.0792633648043356e-04  -1.4477632550413055e-03  -2.0784748535508739e-03  -2.8563617421883763e-03  -3.8339718426836722e-03  -5.0502253980502596e-03  -6.5201908042271314e-03  -8.2346648520260756e-03  -1.0160306727002511e-02  -1.2242275393371775e-02  -1.4398850211906594e-02  -1.6536104738170056e-02  -1.8559573480983527e-02  -2.0377971879163608e-02  -2.1928988114817062e-02  -2.3173027188498223e-02  -2.4112013485678364e-02  -2.4782446556172056e-02  -2.5262499423530149e-02  -2.5658924202557349e-02  -2.6102306713104505e-02  -2.6736470824128142e-02  -2.7711079781058568e-02  -2.9178436234214275e-02  -3.1252999179974622e-02  -3.4036036917663097e-02  -3.7574729876995984e-02  -4.1850620155600184e-02  -4.6778034826762717e-02  -5.2208459750236226e-02  -5.7921246797319921e-02  -6.3719549851476029e-02  -6.9260589705448655e-02  -7.4274099523245263e-02  -7.8783635148686554e-02  -8.2452446246849706e-02  -8.5440784153200819e-02  -8.7771226521082338e-02  -8.9626302042804334e-02  -9.1281951927170854e-02  -9.2893797193887004e-02  -9.4782485345418818e-02  -9.7160240670069550e-02  -1.0025592518757251e-01  -1.0424645645356403e-01  -1.0928589318658356e-01  -1.1547350507693137e-01  -1.2283756114147003e-01  -1.3133140157022713e-01  -1.4083590774266039e-01  -1.5106954368864933e-01  -1.6197275945159847e-01  -1.7298772369586135e-01  -1.8389095553860879e-01  -1.9439527570121712e-01  -2.0428871309423610e-01  -2.1342499434990581e-01  -2.2177837800387004e-01  -2.2940630496613379e-01  -2.3644273650620415e-01  -2.4298895291265188e-01  -2.4920785641252849e-01  -2.5528289932185244e-01  -2.6130995511648886e-01  -2.6740065493789777e-01  -2.7364526289287300e-01  -2.8011015814479318e-01  -2.8682170941613694e-01  -2.9378552270046304e-01  -3.0083683360442814e-01  -3.0808311080363993e-01  -3.1523465788883398e-01  -3.2207822218772092e-01  -3.2814181552592375e-01  -3.3355789405461034e-01  -3.3768778068673666e-01  -3.4073175213509155e-01  -3.4263205072091130e-01  -3.4286342450513513e-01  -3.4196093322480597e-01  -3.3995158716731999e-01  -3.3711656995178918e-01  -3.3349945437247608e-01  -3.2922444234795234e-01  -3.2442943136284969e-01  -3.1927911253653485e-01  -3.1382022799087028e-01  -3.0809626035533028e-01  -3.0220953516454430e-01  -2.9617199338342903e-01  -2.9003618997355129e-01  -2.8382177221238181e-01  -2.7754640285973808e-01  -2.7122824598550910e-01  -2.6488674171544130e-01  -2.5852564031643072e-01  -2.5215471206539652e-01  -2.4578083770263404e-01  -2.3941061554998894e-01  -2.3304701723281193e-01  -2.2669096331732272e-01  -2.2034726912721384e-01  -2.1401676838491046e-01  -2.0770161073213969e-01  -2.0140222030272320e-01  -1.9511965146247784e-01  -1.8885543702621338e-01  -1.8260884013753043e-01  -1.7638149249510335e-01  -1.7017289280575901e-01  -1.6398358119761597e-01  -1.5781388274004288e-01  -1.5166360521587402e-01  -1.4553306173998687e-01  -1.3942224541082998e-01  -1.3333119133058594e-01  -1.2725991294171024e-01  -1.2120840062478709e-01  -1.1517665306541550e-01  -1.0916466883733404e-01  -1.0317249045694385e-01  -1.0317319497501157e-01  -1.0317495461461672e-01  -1.0317768727569217e-01  -1.0318101310739067e-01  -1.0318433358974953e-01  -1.0318707635196669e-01  -1.0318882250208949e-01  -1.0318953007023519e-01  -3.1709377072301037e-01  -3.2635285491895977e-01  -4.9444778560849234e-01  -4.4031399393488591e-01  -4.4159765584883215e-01  -4.1778049884577523e-01  -3.9936023497660289e-01  -3.8313364387799381e-01  -3.6787607223640845e-01  -3.5416519918565526e-01  -3.4298318504241465e-01  -3.3199729830253005e-01  -3.2106046524418247e-01  -3.0988078710808559e-01  -2.9823505556854990e-01  -2.8635111380524836e-01  -2.7355989597976388e-01  -3.1073741931624566e-01  -2.8471034850958510e-01  -2.3902533344447743e-01  -1.8646669477877095e-01  -1.4643339155216728e-01  -1.2339812705569636e-01  -3.5349368405998544e-01  -2.9671999811606575e-01  -1.1441437796184023e-01  -1.1099798725610138e-01  -1.0421010801232236e-01  -3.1265824938447884e-01  -8.9168039581032005e-02  -7.1576855682014384e-02  -2.6036655013012461e-01  -5.5864200459264761e-02  -2.6962734371115016e-01  -2.4529567821641599e-01  -4.8239463536884603e-02  -2.1725025357032560e-01  -2.4595699611847346e-01  -1.6892366286199287e-01  -4.6663857740302100e-02  -2.3186025410802807e-01  -3.1543113175255910e-01  -4.5580975249792516e-02  -1.1883242841664006e-01  -3.1771391829940160e-01  -2.1571460736209364e-01  -4.0513501732234322e-02  -9.3599944058866222e-02  -1.9795273800353927e-01  -8.8776019512907367e-02  -3.0855770887972422e-02  -8.0602895025817980e-02  -3.3856342431938535e-01  -2.0675474768792466e-02  -1.8009321277770673e-01  -6.6660045924700942e-02  -3.4226850613765258e-01  -3.3492430611344098e-01  -4.9619714740859425e-02  -1.4865708952946007e-02  -1.6019820367446605e-01  -1.4539465651749464e-01  -1.0199579576326950e-01  -1.2801360676740047e-02  -1.1212451225356806e-02  -3.1681315345650013e-01  -3.5773140019253871e-02  -2.7096622446443928e-02  -2.9895714256200367e-01  -4.5694861788816132e-01  -4.9646120473483463e-01  -2.8085114672556039e-01  -2.5444573924951960e-02  -8.8750747836481222e-03  -2.5620611105669960e-01  -2.2678583661228092e-02  -2.2369304807587004e-01  -1.7721638952478573e-02  -1.9198683647885570e-01  -1.1332554529232729e-02  -1.7337858895225500e-01  -1.3650721339240521e-01  -1.5459337325636860e-01  -5.8161835383906844e-03  -1.0822444617276056e-01  -7.8098446968368363e-04  -1.2887768306111189e-01  -3.1071117313974528e-01  -2.5148342256768631e-03  -4.9232907699969112e-03  -3.1648654678102001e-01  -3.1359689823141756e-01  -3.2979449197982824e-01  -2.8279378878737105e-01  -3.2695212960974368e-01  -2.6801262920590729e-01  -2.4290019272360755e-01  -2.1012048724881177e-01  -1.4590538878472553e-01  -1.9903055140864417e-01  -2.3177127395290409e-01  -2.5745468796648807e-01  -1.7055539878853707e-01  -1.8923943190561107e-01  -3.0187269945968417e-02  -2.4505806402754748e-02  -2.0642477154025604e-01  -1.7368607921902941e-02  -1.2433079197733414e-01  -2.5437280435268422e-02  -3.6066959004280148e-02  -2.2365780168466307e-01  -4.3715509026464573e-02  -1.0825370297281836e-01  -4.6386442382559623e-02  -2.3869787127601036e-01  -4.7157273633505234e-02  -5.0953805820887176e-02  -1.1773126101535812e-01  -6.2981134228483296e-02  -2.5345256871571625e-01  -8.0464103053494704e-02  -9.7890363384257745e-02  -1.0845414955025157e-01  -2.6711773630919783e-01  -1.1248551059455818e-01  -1.0083804913768154e-03  -2.7995533655583454e-01  -2.9231776012726340e-01  -3.0432513489194607e-01  -3.1515100200547808e-01  -3.2677354235429734e-01  -3.3757870196890377e-01  -3.4880899836942292e-01  -3.6247980564813181e-01  -3.1567505325559742e-01  -3.7703514207599909e-01  -3.9276028881059910e-01  -4.1007270772496368e-01  -3.0070931434315024e-01  -4.2986787263181303e-01  -2.1282073769761914e-01  -2.6261755520261010e-01  -1.6610290558758498e-01  -1.3290850771282509e-01  -1.0783314801187331e-01  -3.9537242547729218e-01  -4.6746654135751186e-04  -1.1783934968258560e-01  -1.1464796413151426e-03  -3.1216096255182851e-01  -1.0852568422285685e-03  -1.0769594202660941e-01  -3.1284565569182587e-01  -3.1266779440409742e-01  -3.1331017820532397e-01  -3.1267534205384023e-01  -3.1334009095443954e-01  -3.1289308579002789e-01  -3.1362098517108961e-01  -3.1316110860458868e-01  -3.1394668911591167e-01  -3.1327629595369627e-01  -3.1416440314393512e-01  -3.1305173410476728e-01  -3.1419694557993483e-01  -3.1270625196857138e-01  -3.1421837611954312e-01  -3.1271492248463206e-01  -3.1461226802327974e-01  -3.1334679388813969e-01  -3.1553691254473404e-01  -3.1466612905672925e-01  -3.1643790703548558e-01  -3.1272241962738334e-01  -3.1783031376387771e-01  -3.1809401395526449e-01  -3.1433742564358652e-01  -3.1326643364157697e-01  -3.1984347765169496e-01  -3.1918422642543892e-01  -3.2121159634594576e-01  -3.1938156344286739e-01  -3.2170378533088306e-01  -3.1835924409262517e-01  -3.2065626219170701e-01  -3.1594067827563310e-01  -3.1783263245227378e-01  -3.1046567821929594e-01  -3.1230812144944864e-01  -3.0404367639726432e-01  -3.0446083264560098e-01  -2.9538617895200364e-01  -2.9425264612617058e-01  -2.8313023144605282e-01  -2.8156508852794210e-01  -2.7184163547637863e-01  -2.6749586044889684e-01  -2.5842715518879983e-01  -2.5219249772426966e-01  -2.4484949658729321e-01  -2.3645870893682269e-01  -2.3094037912894144e-01  -2.2111897050476367e-01  -3.1487859873045676e-01  -3.1543436670596214e-01  -2.1739958760957565e-01  -2.0501172501236764e-01  -2.0467809779827631e-01  -1.9181842609340158e-01  -1.9350003119695589e-01  -1.8025361803346160e-01  -1.8331279154424615e-01  -1.6969024876233849e-01  -1.7433405837525290e-01  -1.6065030973638086e-01  -3.1643442679424627e-01  -1.6640089544998649e-01  -1.5298869094066500e-01  -1.5940042754670702e-01  -1.4660616493308670e-01  -1.5327930731048769e-01  -1.4131095886104303e-01  -3.1635820077737475e-01  -3.1863835562543191e-01  -3.1149458126251539e-01  -1.4760371896497113e-01  -1.3679786686552392e-01  -3.1351405726550624e-01  -1.4208695388094192e-01  -1.3285681765182208e-01  -1.3717790292811349e-01  -1.2936481180495457e-01  -1.3235354742721916e-01  -1.2606099226401662e-01  -3.1303107650741052e-01  -1.2792982451912296e-01  -1.2288180210924900e-01  -1.2320635507103243e-01  -1.1957875792791289e-01  -1.1875862958067056e-01  -1.1620486198632742e-01  -3.1562304018152437e-01  -2.9460809227102341e-01  -1.1439558374937431e-01  -1.1262380198699119e-01  -3.1861069531299552e-01  -3.2290240142726762e-01  -3.1566233727756721e-01  -2.6240686088247672e-01  -1.1011935804058881e-01  -1.0885391346038524e-01  -1.0599959341076176e-01  -1.0496217136320346e-01  -1.0215444051800521e-01  -1.0114980221419748e-01  -1.3130900070887194e-01  -1.1118973489872297e-01  -1.2322825261034949e-01  -1.4842120012801008e-01  -9.8673489987538957e-02  -9.7406760275152299e-02  -9.9760316969124685e-02  -9.5582244824940765e-02  -9.3868865129341089e-02  -9.1446897636803637e-02  -9.0559317583656762e-02  -8.7355350735713419e-02  -8.7531378782675709e-02  -8.3499552706437830e-02  -8.4794166279615737e-02  -7.9999764891699757e-02  -8.2270648599734625e-02  -7.6825538921695816e-02  -8.0042056543398826e-02  -7.3966063456793990e-02  -7.7718441587228959e-02  -7.1074905152906362e-02  -7.5402726207566689e-02  -6.8526823212910259e-02  -7.2876802499792240e-02  -6.6048617486189495e-02  -7.0384445342296542e-02  -6.3564160220966878e-02  -1.8005431551229031e-01  -2.2710452439238007e-01  -6.7389796194900389e-02  -6.1041777077354080e-02  -6.3995777814447666e-02  -5.8359319963625735e-02  -3.2249536293483516e-01  -6.0375120766292215e-02  -5.5623913025248863e-02  -2.6096760209260778e-01  -3.0218242899901721e-01  -3.2131590668554688e-01  -3.2658004251861711e-01  -3.2938461964693888e-01  -3.3377251003777547e-01  -3.3773913837646363e-01  -3.4233391506178751e-01  -3.4786344234250494e-01  -3.5178178256057757e-01  -3.5973686134108229e-01  -3.6133349193712605e-01  -3.7173370115122256e-01  -3.7014343688101853e-01  -3.8270747758229617e-01  -3.7819993798668289e-01  -3.9341616905119597e-01  -3.8547591206618620e-01  -3.9714992162522517e-01  -3.8773361857468031e-01  -3.9916733583404179e-01  -3.9084990237258321e-01  -3.9925240754106661e-01  -3.9066490308899465e-01  -3.9741708975262235e-01  -3.8906183772828890e-01  -3.9434824926801348e-01  -3.8651477290378600e-01  -3.9057305935705533e-01  -3.8327804903076151e-01  -3.8277811449329008e-01  -3.7893474077242983e-01  -3.7615739726583292e-01  -3.7959877855233298e-01  -3.7303126218292454e-01  -3.7565802576657403e-01  -3.6960817175088750e-01  -3.7171993569404177e-01  -3.6603235429243342e-01  -3.6690157223073294e-01  -3.6837888152722104e-01  -3.6237928768111910e-01  -3.6337183342930890e-01  -3.5837688187328454e-01  -3.5705616100855042e-01  -3.5344695816215105e-01  -3.5437055291893504e-01  -3.4977185608529282e-01  -3.5020748332864504e-01  -3.4599116860241724e-01  -3.4101260442751735e-01  -3.4607603788777236e-01  -3.4212600601611842e-01  -3.4164591272185352e-01  -3.3800483448037133e-01  -3.3827687695451419e-01  -3.3430711747996106e-01  -3.3440476585186157e-01  -3.3057372658130629e-01  -3.9703092346187024e-01  -3.7489872699186472e-01  -3.6955640780584148e-01  -4.0804916387864565e-01  -3.3049491290164434e-01  -3.2677450752049264e-01  -3.2675737276689037e-01  -3.2301615874667183e-01  -3.2292180206000748e-01  -3.1924387067687765e-01  -3.1900366814805214e-01  -3.1540311282578404e-01  -3.1560423113395086e-01  -3.1182909075940030e-01  -3.1146076448138016e-01  -3.0797404731527717e-01  -3.5204999491913891e-01  -3.0747900833568376e-01  -3.0410927668483384e-01  -4.0641960123233534e-01  -3.5185437679875087e-01  -3.3747114282414714e-01  -3.9800799413032950e-01  -3.0354618766948305e-01  -3.0012138005969169e-01  -3.0092839185857689e-01  -2.9672132543392693e-01  -2.9619194295718859e-01  -2.9265589708820122e-01  -2.9319140936707294e-01  -2.8913999682513031e-01  -2.8857791310297953e-01  -2.8508296205004946e-01  -3.7745096957263635e-01  -2.8450189278471111e-01  -2.8095024000628743e-01  -3.1181982637739342e-01  -3.5370064048730165e-01  -1.9704661978138335e-01  -3.6803993051869793e-01  -2.8155309343662133e-01  -2.7740901530003725e-01  -2.7679877934836883e-01  -2.7326359344333945e-01  -5.6718329913783859e-02  -5.2858919730234932e-02  -5.2941095860672860e-02  -5.0029953918632457e-02  -4.9126967609841400e-02  -4.7209426290687383e-02  -2.7248102821397174e-01  -2.6899803927517785e-01  -1.5940153478148547e-01  -2.6967131736943134e-01  -2.6543669858455127e-01  -2.6488441075235186e-01  -2.6122617586789815e-01  -3.1254169072054411e-01  -3.3146565937330441e-01  -3.3825329538763788e-01  -7.4237742643080709e-02  -4.5435042312072654e-02  -4.4482657387591967e-02  -9.7680929962781035e-02  -5.9629233009267965e-02  -4.6278253756085144e-02  -4.4390972750403400e-02  -4.1856061613075209e-02  -4.2431351235661788e-02  -3.9389065007208693e-02  -4.0414107976067912e-02  -3.7063328408263575e-02  -3.8347023248676060e-02  -3.4931740317535313e-02  -3.6238731112797413e-02  -3.2954775239426255e-02  -3.4078620308400961e-02  -3.1140043341448518e-02  -3.1997214156604850e-02  -2.9533948928443167e-02  -2.9994174227545255e-02  -2.813914615972820