<?xml version="1.0"?>
<VTKFile type="UnstructuredGrid"  version="0.1"  >
<UnstructuredGrid>
<Piece  NumberOfPoints="2945" NumberOfCells="5525">
<Points>
<DataArray  type="Float64"  NumberOfComponents="3"  format="ascii">0 0.1 0  0.95 0.1 0  1 0.1 0  1 0 0  1.5 0 0  3 0 0  3 0.3 0  0 0.3 0  0.0197424558707114 0.1 0  0.03915669042224804 0.1 0  0.05824816022699029 0.1 0  0.07702223050332387 0.1 0  0.09548417327144595 0.1 0  0.1136391897583987 0.1 0  0.1314923700144587 0.1 0  0.1490487330862866 0.1 0  0.1663132263225292 0.1 0  0.1832906857273058 0.1 0  0.1999858946008978 0.1 0  0.216403545770297 0.1 0  0.2325482404045023 0.1 0  0.2484245348165176 0.1 0  0.2640368740372501 0.1 0  0.2793896589642241 0.1 0  0.2944872056237027 0.1 0  0.3093337469555254 0.1 0  0.3239334613687816 0.1 0  0.3382904528528069 0.1 0  0.3524087553122972 0.1 0  0.3662923366391824 0.1 0  0.3799451014768399 0.1 0  0.393370886920506 0.1 0  0.4065734648871676 0.1 0  0.419556546320114 0.1 0  0.4323237821343415 0.1 0  0.4448787573056132 0.1 0  0.4572250047274954 0.1 0  0.4693659926332938 0.1 0  0.4813051343276231 0.1 0  0.4930457849308193 0.1 0  0.5045912455271677 0.1 0  0.5159447600209797 0.1 0  0.5271095174127136 0.1 0  0.5380886618453393 0.1 0  0.5488852725463512 0.1 0  0.5595023868312478 0.1 0  0.5699429904313016 0.1 0  0.5802100167387366 0.1 0  0.5903063508274641 0.1 0  0.6002348329443006 0.1 0  0.6099982499579832 0.1 0  0.6195993483501782 0.1 0  0.6290408246013842 0.1 0  0.6383253354321616 0.1 0  0.6474554910757137 0.1 0  0.6564338522440513 0.1 0  0.6652629482939147 0.1 0  0.6739452579188948 0.1 0  0.6824832240165607 0.1 0  0.6908792415022103 0.1 0  0.6991356755989045 0.1 0  0.7072548438546967 0.1 0  0.7152390281534421 0.1 0  0.7230904746196039 0.1 0  0.7308113906759266 0.1 0  0.7384039435269326 0.1 0  0.7458702676581656 0.1 0  0.7532124631720397 0.1 0  0.7604325921167397 0.1 0  0.7675326856666862 0.1 0  0.7745147374421916 0.1 0  0.7813807123989068 0.1 0  0.7881325374362798 0.1 0  0.7947721131625659 0.1 0  0.8013013031866276 0.1 0  0.8077219449067021 0.1 0  0.8140358419942376 0.1 0  0.8202447685401882 0.1 0  0.8263504700910924 0.1 0  0.8323546643163114 0.1 0  0.8382590362474568 0.1 0  0.8440652473522128 0.1 0  0.8497749272799842 0.1 0  0.8553896837646281 0.1 0  0.8609110933285474 0.1 0  0.866340708855119 0.1 0  0.8716800550492284 0.1 0  0.8769306339052932 0.1 0  0.8820939206038667 0.1 0  0.8871713655604893 0.1 0  0.8921643975475726 0.1 0  0.8970744196575535 0.1 0  0.9019028106970642 0.1 0  0.9066509291259979 0.1 0  0.9113201098984042 0.1 0  0.9159116634553873 0.1 0  0.9204268818729691 0.1 0  0.9248670319440222 0.1 0  0.9292333656649013 0.1 0  0.9335271075812669 0.1 0  0.9377494640511216 0.1 0  0.941901623463222 0.1 0  0.9459847526686701 0.1 0  0.9538461538461205 0.1 0  0.9576923076922409 0.1 0  0.9615384615384381 0.1 0  0.9653846153846337 0.1 0  0.9692307692307542 0.1 0  0.9730769230768747 0.1 0  0.9769230769229952 0.1 0  0.9807692307691157 0.1 0  0.9846153846152361 0.1 0  0.9884615384614317 0.1 0  0.9923076923076356 0.1 0  0.9961538461538395 0.1 0  1 0.09591793123533533 0  1 0.09133596463859224 0  1 0.08619288104391448 0  1 0.08041996484521211 0  1 0.07394008421771697 0  1 0.06666666567302955 0  1 0.05850252932209174 0  1 0.04933859630113544 0  1 0.03905242821848202 0  1 0.02750659386753798 0  1 0.01454683679239736 0  1.015625 0 0  1.03125 0 0  1.046875 0 0  1.0625 0 0  1.078125 0 0  1.09375 0 0  1.109375 0 0  1.125 0 0  1.140625 0 0  1.15625 0 0  1.171875 0 0  1.1875 0 0  1.203125 0 0  1.21875 0 0  1.234375 0 0  1.25 0 0  1.265625 0 0  1.28125 0 0  1.296875 0 0  1.3125 0 0  1.328125 0 0  1.34375 0 0  1.359375 0 0  1.375 0 0  1.390625 0 0  1.40625 0 0  1.421875 0 0  1.4375 0 0  1.453125 0 0  1.46875 0 0  1.484375 0 0  1.515920751924515 0 0  1.531989369316721 0 0  1.54820720925872 0 0  1.564575665560501 0 0  1.581096138674279 0 0  1.597770029901263 0 0  1.614598783332311 0 0  1.631583831055205 0 0  1.64872661129721 0 0  1.666028606716533 0 0  1.683491276608443 0 0  1.701116134125304 0 0  1.718904673324128 0 0  1.736858414799339 0 0  1.754978895814663 0 0  1.773267661782904 0 0  1.791726281103402 0 0  1.810356325314689 0 0  1.8291593848892 0 0  1.848137076690385 0 0  1.867291007717254 0 0  1.886622833871288 0 0  1.90613418642363 0 0  1.925826753299799 0 0  1.945702199101513 0 0  1.96576223584749 0 0  1.986008569283268 0 0  2.006442931928877 0 0  2.02706707547783 0 0  2.047882750887917 0 0  2.06889175187935 0 0  2.090095860038271 0 0  2.111496891648636 0 0  2.133096679109554 0 0  2.154897066851056 0 0  2.176899916687499 0 0  2.199107102752146 0 0  2.22152053937028 0 0  2.244142122958061 0 0  2.266973806444078 0 0  2.290017523268154 0 0  2.313275249499252 0 0  2.336748971745516 0 0  2.360440702338606 0 0  2.384352453384031 0 0  2.408486280477412 0 0  2.432844240041185 0 0  2.457428414757088 0 0  2.482240901796653 0 0  2.507283830121838 0 0  2.532559332080812 0 0  2.558069568787417 0 0  2.583816724966441 0 0  2.60980299606584 0 0  2.636030600971886 0 0  2.662501790984011 0 0  2.689218818279327 0 0  2.716183964547616 0 0  2.743399548861297 0 0  2.77086788244719 0 0  2.798591312896326 0 0  2.826572223178268 0 0  2.854812990138617 0 0  2.883316031690714 0 0  2.912083780657189 0 0  2.941118704633482 0 0  2.970423276998917 0 0  3 0.02999999999994495 0  3 0.05999999999987042 0  3 0.089999999999783 0  3 0.119999999999701 0  3 0.149999999999619 0  3 0.179999999999692 0  3 0.2099999999997737 0  3 0.2399999999998511 0  3 0.2699999999999185 0  2.970138294777171 0.3 0  2.940375666438236 0.3 0  2.910711782853056 0.3 0  2.881146331305122 0.3 0  2.851678975030285 0.3 0  2.822309388626621 0.3 0  2.793037250095074 0.3 0  2.76386223529133 0.3 0  2.734784017903872 0.3 0  2.705802289276642 0.3 0  2.676916713794697 0.3 0  2.648126987654635 0.3 0  2.619432780406184 0.3 0  2.590833779385199 0.3 0  2.562329669847737 0.3 0  2.533920134950189 0.3 0  2.505604855727852 0.3 0  2.477383539822502 0.3 0  2.449255847639465 0.3 0  2.421221492569094 0.3 0  2.393280152486815 0.3 0  2.36543151914496 0.3 0  2.337675285481809 0.3 0  2.310011142385583 0.3 0  2.282438797441587 0.3 0  2.254957931061538 0.3 0  2.227568248063605 0.3 0  2.200269436651085 0.3 0  2.173061204949961 0.3 0  2.145943251515011 0.3 0  2.118915272469994 0.3 0  2.091976978084957 0.3 0  2.065128060700849 0.3 0  2.038368218849433 0.3 0  2.01169717777258 0.3 0  1.985114624111908 0.3 0  1.958620267850966 0.3 0  1.93221382054972 0.3 0  1.905894991850698 0.3 0  1.879663489459713 0.3 0  1.853519019126419 0.3 0  1.827461291053897 0.3 0  1.801490031354372 0.3 0  1.775604937580312 0.3 0  1.74980572560258 0.3 0  1.724092118631866 0.3 0  1.698463829173586 0.3 0  1.672920575782554 0.3 0  1.647462076974085 0.3 0  1.622088043536933 0.3 0  1.5967981978949 0.3 0  1.571592267767068 0.3 0  1.546469970305736 0.3 0  1.521431023814044 0.3 0  1.496475156230927 0.3 0  1.471602093687753 0.3 0  1.446811560490646 0.3 0  1.422103279101731 0.3 0  1.397476971708191 0.3 0  1.37293238939876 0.3 0  1.348469231419202 0.3 0  1.324087248732772 0.3 0  1.299786165921677 0.3 0  1.275565710847046 0.3 0  1.251425617644257 0.3 0  1.227365618676339 0.3 0  1.203385446174014 0.3 0  1.179484853067473 0.3 0  1.155663548773374 0.3 0  1.131921292279077 0.3 0  1.108257802159295 0.3 0  1.084672829009693 0.3 0  1.061166115303374 0.3 0  1.037737392995421 0.3 0  1.01438640299116 0.3 0  0.991112899770314 0.3 0  0.9679166155523955 0.3 0  0.944797284182564 0.3 0  0.921754678526042 0.3 0  0.8987885143602501 0.3 0  0.8758985548820624 0.3 0  0.8530845484099929 0.3 0  0.8303462351786988 0.3 0  0.8076833651172373 0.3 0  0.7850956864865304 0.3 0  0.7625829601354557 0.3 0  0.7401449314598274 0.3 0  0.717781337993959 0.3 0  0.6954919649675473 0.3 0  0.6732765357561226 0.3 0  0.6511348120768439 0.3 0  0.6290665642016573 0.3 0  0.6070715355430467 0.3 0  0.5851494825775325 0.3 0  0.5633001690203812 0.3 0  0.5415233562273221 0.3 0  0.5198187909431873 0.3 0  0.4981862401387795 0.3 0  0.4766254686134248 0.3 0  0.4551362360485234 0.3 0  0.4337182975262159 0.3 0  0.4123714223228037 0.3 0  0.3910953802377493 0.3 0  0.3698899313205595 0.3 0  0.3487548463710963 0.3 0  0.3276898864081783 0.3 0  0.3066948129116018 0.3 0  0.2857694003037476 0.3 0  0.2649134227095047 0.3 0  0.2441266417321288 0.3 0  0.2234088223399122 0.3 0  0.2027597568977288 0.3 0  0.1821792020676698 0.3 0  0.1616669305402443 0.3 0  0.1412227158799362 0.3 0  0.12084633013886 0.3 0  0.1005375673448281 0.3 0  0.08029618164595353 0.3 0  0.06012194778526769 0.3 0  0.04001466495039718 0.3 0  0.01997408913631205 0.3 0  0 0.2800000000000553 0  0 0.2600000000001105 0  0 0.2400000000001658 0  0 0.2200000000002211 0  0 0.2000000000002764 0  0 0.1800000000002244 0  0 0.1600000000001691 0  0 0.140000000000115 0  0 0.1200000000000564 0  1.133778471000506 0.01219539743990768 0  1.003741919047894 0.09354664821474232 0  0.9559421147150347 0.1035858189992458 0  0.9313792160389045 0.1037365237938103 0  0.9788461538460573 0.1033060829993555 0  0.9090102438250753 0.1037269304984056 0  0.8846304212778655 0.1043349840723655 0  0.8581503885465881 0.104741932962923 0  0.8286416220145676 0.1052762843984476 0  0.7982741772533339 0.1053575624517407 0  0.7708789559342691 0.1060290465840416 0  0.741870349714261 0.1078220590984258 0  0.7112469360040695 0.10685702926368 0  0.6783901541417233 0.1079959711853378 0  0.642884733623195 0.1075561996086514 0  0.6056235042367955 0.1085956039602543 0  0.5647007593786924 0.1083187281660325 0  1.1953125 0.01353164693413185 0  1.258148737344733 0.01268350115427042 0  1.320087046516829 0.01426312402966312 0  1.383495130751951 0.01432665475473204 0  1.4453125 0.01315663539200989 0  1.50886768312388 0.01395488397722681 0  0.9942307692307371 0.103330866937657 0  1.119309781943483 0.2802014914557878 0  1.572831235329714 0.01707210522554785 0  1.637611634353954 0.01209340368483431 0  1.709661292005932 0.0146870244871893 0  1.006561890631532 0.07068055446055937 0  1.784793444007901 0.01499371444634687 0  1.855459587353174 0.0
[...]
<PointData  Scalars="pressure"> 
<DataArray  type="Float64"  Name="pressure"  format="ascii">-6.8852011790427694e+00  -7.5691094313373277e+00  -7.1612139704750897e+00  -6.6588283118531111e+00  -5.1309810606308046e+00  0.0000000000000000e+00  0.0000000000000000e+00  -6.8851767368676118e+00  -6.8911238962966239e+00  -6.8969484249209989e+00  -6.9026764748308294e+00  -6.9083096928135017e+00  -6.9138497526565539e+00  -6.9192982077308640e+00  -6.9246566689377076e+00  -6.9299267542882799e+00  -6.9351098998815619e+00  -6.9402078056857714e+00  -6.9452219799508317e+00  -6.9501538302286372e+00  -6.9550049834377994e+00  -6.9597768632520500e+00  -6.9644710644327699e+00  -6.9690890034549300e+00  -6.9736323201458257e+00  -6.9781023680474146e+00  -6.9825008287009496e+00  -6.9868290477985511e+00  -6.9910888947455874e+00  -6.9952817625586281e+00  -6.9994087109280647e+00  -7.0034722567073588e+00  -7.0074735420399561e+00  -7.0114145689759493e+00  -7.0152967584234558e+00  -7.0191217165555138e+00  -7.0228921968854419e+00  -7.0266089342619180e+00  -7.0302752057213995e+00  -7.0338910520489355e+00  -7.0374608639029859e+00  -7.0409858125168672e+00  -7.0444685476386661e+00  -7.0479110724887999e+00  -7.0513164939005595e+00  -7.0546873261317442e+00  -7.0580262343390618e+00  -7.0613368607666827e+00  -7.0646223584307464e+00  -7.0678856867417039e+00  -7.0711317135318881e+00  -7.0743627803840674e+00  -7.0775833339007583e+00  -7.0807986328483503e+00  -7.0840131055424802e+00  -7.0872311382705613e+00  -7.0904591490025677e+00  -7.0936985620257706e+00  -7.0969678909331195e+00  -7.1002494235770479e+00  -7.1035807557964930e+00  -7.1069439327798820e+00  -7.1103579179984786e+00  -7.1138276148077360e+00  -7.1173627822283709e+00  -7.1209688241572717e+00  -7.1246817855491633e+00  -7.1284614064989373e+00  -7.1323441916164203e+00  -7.1363600888168577e+00  -7.1405013273816520e+00  -7.1448019937340046e+00  -7.1492211005222019e+00  -7.1538321481034517e+00  -7.1586280306707870e+00  -7.1636335478502291e+00  -7.1688662534335590e+00  -7.1743324575791902e+00  -7.1800636076580986e+00  -7.1860888071138058e+00  -7.1924399131379699e+00  -7.1991132423848612e+00  -7.2061530904878754e+00  -7.2136225625478341e+00  -7.2215120308266583e+00  -7.2298764964475115e+00  -7.2388155561983387e+00  -7.2483164761353738e+00  -7.2584127250752628e+00  -7.2692571357142963e+00  -7.2808853449489845e+00  -7.2933834410283129e+00  -7.3068191072499964e+00  -7.3214197243645209e+00  -7.3372403683958360e+00  -7.3544730114102022e+00  -7.3733579487855616e+00  -7.3943051438512875e+00  -7.4175637467903215e+00  -7.4436503811396388e+00  -7.4732059335245324e+00  -7.5068803964742701e+00  -7.5507768597754996e+00  -7.6961947252011251e+00  -7.8170616612160497e+00  -7.9003298979092715e+00  -7.9544074907927396e+00  -7.9756399344117828e+00  -7.9670002714059729e+00  -7.9295110348900417e+00  -7.8668528189710560e+00  -7.7804028113912223e+00  -7.6745304724580450e+00  -7.5475164695259762e+00  -7.4446688141661861e+00  -6.9768876274023075e+00  -6.9411737995073253e+00  -6.8906726517416308e+00  -6.8467817796624377e+00  -6.8076973776527883e+00  -6.7718093646392772e+00  -6.7397899164511355e+00  -6.7119676606214744e+00  -6.6884959018905885e+00  -6.6704886681253734e+00  -6.6598780147336383e+00  -6.6570581337981309e+00  -6.6430337939845607e+00  -6.6181132179578164e+00  -6.5839469883655575e+00  -6.5421131059513433e+00  -6.4955745241304106e+00  -6.4465407138970461e+00  -6.3950542082615387e+00  -6.3422846069725773e+00  -6.2892126323781321e+00  -6.2358551045595414e+00  -6.1823810276673319e+00  -6.1291063123201921e+00  -6.0758456039956688e+00  -6.0226933929028323e+00  -5.9697501975776603e+00  -5.9171203613005279e+00  -5.8645425384854368e+00  -5.8122155715506132e+00  -5.7612387884292282e+00  -5.7087082198220198e+00  -5.6581604948713462e+00  -5.6067139782500135e+00  -5.5555645383928720e+00  -5.5035747822282151e+00  -5.4534953390754044e+00  -5.4008309302746014e+00  -5.3485539654978167e+00  -5.2954199423891941e+00  -5.2415473752297022e+00  -5.1867457484284829e+00  -5.0732126438173282e+00  -5.0141407323981868e+00  -4.9537735703208501e+00  -4.8925365475314324e+00  -4.8290471076628156e+00  -4.7656374693196275e+00  -4.7007354847192069e+00  -4.6376510569073082e+00  -4.5731677967332542e+00  -4.5082874470628669e+00  -4.4436325815786972e+00  -4.3794266160959836e+00  -4.3152925604325656e+00  -4.2514528915787739e+00  -4.1876048811353499e+00  -4.1237934887246395e+00  -4.0599805505367019e+00  -3.9972922007689755e+00  -3.9320396045305732e+00  -3.8688462523631815e+00  -3.8038586507366086e+00  -3.7382608290630035e+00  -3.6725980399701452e+00  -3.6059360730108168e+00  -3.5390643361273151e+00  -3.4696849937896275e+00  -3.4018811594643670e+00  -3.3326803500375259e+00  -3.2630699674426649e+00  -3.1938209834718312e+00  -3.1227688263258662e+00  -3.0507352756440009e+00  -2.9782087734167049e+00  -2.9056312687889179e+00  -2.8319992671238317e+00  -2.7578798270324500e+00  -2.6828424292091615e+00  -2.6074146915231715e+00  -2.5311865102781801e+00  -2.4542317564051115e+00  -2.3765881619395852e+00  -2.2983874042059207e+00  -2.2194086363762846e+00  -2.1396983005002870e+00  -2.0590861507205895e+00  -1.9782216706639610e+00  -1.8965894311105893e+00  -1.8136958918871531e+00  -1.7303597425817354e+00  -1.6480292349108470e+00  -1.5612353057378905e+00  -1.4777275833889594e+00  -1.3895424636777531e+00  -1.3025224306566996e+00  -1.2167135253864823e+00  -1.1258063613195719e+00  -1.0384697176125988e+00  -9.4720901016537185e-01  -8.5571428466749322e-01  -7.6380574398045475e-01  -6.7370677552143998e-01  -5.7859428001172197e-01  -4.8449730163472959e-01  -3.8915705928691474e-01  -2.9140700625862159e-01  -1.9775761632733763e-01  -9.8690800462330780e-02  0.0000000000000000e+00  0.0000000000000000e+00  0.0000000000000000e+00  0.0000000000000000e+00  0.0000000000000000e+00  0.0000000000000000e+00  0.0000000000000000e+00  0.0000000000000000e+00  0.0000000000000000e+00  -9.8873672008427116e-02  -1.9670396058575074e-01  -2.9824912585199193e-01  -3.9653806018694704e-01  -4.9449375308215771e-01  -5.9210277274688472e-01  -6.8976282454605464e-01  -7.8718244491567602e-01  -8.8429861052968095e-01  -9.8112776249332334e-01  -1.0777337733914734e+00  -1.1740038048674051e+00  -1.2699644130540593e+00  -1.3657012413229925e+00  -1.4611859573918160e+00  -1.5565150802154215e+00  -1.6515871704276799e+00  -1.7463242001172061e+00  -1.8408548799921911e+00  -1.9351757252873667e+00  -2.0293410110635435e+00  -2.1232662715520942e+00  -2.2169592952905881e+00  -2.3104057782267975e+00  -2.4043347792381495e+00  -2.4974987230261085e+00  -2.5903560757542263e+00  -2.6831584724767583e+00  -2.7751494554673419e+00  -2.8671867087081280e+00  -2.9595436424432449e+00  -3.0522105201931398e+00  -3.1455087642131674e+00  -3.2364082712531985e+00  -3.3284327342938780e+00  -3.4196672566953303e+00  -3.5126430890309810e+00  -3.6041505833209779e+00  -3.6958558718248073e+00  -3.7896582835392625e+00  -3.8798340063247405e+00  -3.9729963661508569e+00  -4.0654276837712269e+00  -4.1573785396648377e+00  -4.2487473784758354e+00  -4.3393228980315213e+00  -4.4280912643882209e+00  -4.5158770001343527e+00  -4.6039249549082424e+00  -4.6904546088531687e+00  -4.7756306553718604e+00  -4.8597364330368089e+00  -4.9466123971454445e+00  -5.0308336701955270e+00  -5.1154946842434761e+00  -5.2008798011376145e+00  -5.2869825660286267e+00  -5.3733261520064568e+00  -5.4603536783736386e+00  -5.5479902451729872e+00  -5.6361083758820065e+00  -5.7240714552393017e+00  -5.8137408283853809e+00  -5.9036254710018667e+00  -5.9939049655302883e+00  -6.0837578902667504e+00  -6.1748275250566138e+00  -6.2653586413872393e+00  -6.3550504551138651e+00  -6.4433192346621047e+00  -6.5290263445533583e+00  -6.6132106013581868e+00  -6.6919260165825092e+00  -6.7655067455605113e+00  -6.8320111822357052e+00  -6.8929475335438939e+00  -6.9448619226577231e+00  -6.9886230674412619e+00  -7.0235274649227710e+00  -7.0490909315877959e+00  -7.0681348567509366e+00  -7.0811126833710665e+00  -7.0895934461871217e+00  -7.0941221108450403e+00  -7.0957028233020427e+00  -7.0951193462278672e+00  -7.0930869658275606e+00  -7.0898446319751089e+00  -7.0857025483736367e+00  -7.0809798910950255e+00  -7.0757769269688788e+00  -7.0702564427002352e+00  -7.0644895905622276e+00  -7.0585410891128584e+00  -7.0524649871494631e+00  -7.0463073621754484e+00  -7.0400801484199604e+00  -7.0338117945266543e+00  -7.0275154806592530e+00  -7.0212057925334301e+00  -7.0148887510064037e+00  -7.0085678105794127e+00  -7.0022519798702598e+00  -6.9959430383802452e+00  -6.9896451154667840e+00  -6.9833589548549329e+00  -6.9770868407700268e+00  -6.9708311997103918e+00  -6.9645910298348630e+00  -6.9583690688535942e+00  -6.9521645936671428e+00  -6.9459785160190970e+00  -6.9398114354082940e+00  -6.9336631018718382e+00  -6.9275340760138331e+00  -6.9214243981276091e+00  -6.9153341762393374e+00  -6.9092634862977080e+00  -6.9032123619853261e+00  -6.8971808401707762e+00  -6.8911689576382242e+00  -6.8851768079104705e+00  -6.8851778219792923e+00  -6.8851803346539651e+00  -6.8851842242892829e+00  -6.8851889521054774e+00  -6.8851936719556583e+00  -6.8851975760395332e+00  -6.8852000693755206e+00  -6.8852010882660846e+00  -6.3657309903701904e+00  -6.9691201021541085e+00  -7.7312275456040620e+00  -7.4315563173935875e+00  -7.7841564599630138e+00  -7.3298235147929836e+00  -7.2640962535566196e+00  -7.2177256019563893e+00  -7.1824930936453288e+00  -7.1564932486040691e+00  -7.1384123909199912e+00  -7.1227392227827835e+00  -7.1086894621157191e+00  -7.0954299461543462e+00  -7.0824259295199914e+00  -7.0696937640540565e+00  -7.0563605532916522e+00  -6.1559675589309952e+00  -5.9423981241081600e+00  -5.7355033753151439e+00  -5.5274064941703873e+00  -5.3218837956164187e+00  -5.0990670657782964e+00  -7.4023524415004047e+00  -6.4895341982534944e+00  -4.8613382106759868e+00  -4.6150637244429689e+00  -4.3489339883852809e+00  -6.7933165774566735e+00  -4.0845343109597350e+00  -3.8438227506193723e+00  -7.0428437407692934e+00  -3.5723060447382373e+00  -6.1294727230031416e+00  -5.7678604295934788e+00  -3.2867249442555098e+00  -5.4150755224368590e+00  -7.0282335840504375e+00  -4.9984269176889011e+00  -3.0186272816138038e+00  -7.0140261547001836e+00  -6.5182955529879987e+00  -2.7203039634884001e+00  -4.5586293021104849e+00  -6.7257958470708017e+00  -6.9978094322031001e+00  -2.4154408102129112e+00  -4.0193195386482916e+00  -6.9800060313265542e+00  -3.7476988407332730e+00  -2.0995145576809828e+00  -3.4600615726388964e+00  -6.9644065909451998e+00  -1.7629371603721362e+00  -6.9621247243444566e+00  -3.1883954496373552e+00  -7.0598721862286746e+00  -7.0929018969775299e+00  -2.9115546774778283e+00  -1.4355274275611210e+00  -6.9422175817529466e+00  -6.9274095576411590e+00  -4.2940081975393447e+00  -1.1717193690931764e+00  -8.9205616833229195e-01  -7.0918101465786698e+00  -2.6339764648655715e+00  -2.2574639141210646e+00  -7.0782465629976921e+00  -7.5283666305200425e+00  -7.8742307402113374e+00  -7.0616906039557463e+00  -1.9815698071704384e+00  -6.2983074768972025e-01  -7.0378015707847483e+00  -1.6040699178864106e+00  -7.0055834405849184e+00  -1.3182724413486344e+00  -6.9739582213477807e+00  -1.0303226765313875e+00  -6.9553680542274812e+00  -6.9185097411309826e+00  -6.9365918844435770e+00  -7.3878716241908948e-01  -6.8902331082142902e+00  -9.1552714899496970e-02  -6.9108901652514181e+00  -6.6982640000542206e+00  -4.5422028112836405e-01  -3.3357603180829060e-01  -6.8677077114948313e+00  -6.6051104904627298e+00  -6.8582862359223258e+00  -6.3129965503039669e+00  -7.0958146062630441e+00  -7.0493519147528731e+00  -7.0246648748550404e+00  -6.9920573673588899e+00  -4.8172239419024390e+00  -5.2409034219573343e+00  -5.5831966965867608e+00  -5.9480851197974882e+00  -6.9525799659007381e+00  -6.9712803394312779e+00  -2.4504536019223218e+00  -1.7939536177042661e+00  -6.9884945405219350e+00  -1.6089769493231558e+00  -6.9063345442000941e+00  -1.9331794422202440e+00  -2.2588832974268223e+00  -7.0057821987969398e+00  -2.5692337080707404e+00  -6.8902595720821553e+00  -2.8707825870340740e+00  -7.0209099573945695e+00  -3.1680583439861336e+00  -3.4284953364961606e+00  -4.9843433455914230e+00  -3.7118440207000960e+00  -7.0358188717446239e+00  -3.9648706428897262e+00  -4.2197939074377482e+00  -4.4796730391617885e+00  -7.0497382908822788e+00  -4.7309389812643765e+00  -7.7498775021380376e-02  -7.0629906177495645e+00  -7.0760329115242078e+00  -7.0891451518792925e+00  -7.1015643805569901e+00  -7.1158725796061910e+00  -7.1304903827084800e+00  -7.1475230320856529e+00  -7.1716894058541678e+00  -6.2596254138752165e+00  -7.2027649831839211e+00  -7.2439747739369018e+00  -7.3004859972243352e+00  -6.0494824563136875e+00  -7.3813315950200016e+00  -5.6338209676706139e+00  -5.8337789294479592e+00  -5.4342650200597902e+00  -5.2141628794483976e+00  -6.8898440728379819e+00  -7.6225825609494251e+00  -9.2500761726110617e-02  -6.8998511418918689e+00  -2.4710419214878981e-01  -6.6511721515098197e+00  -7.7727105948923597e-02  -6.8897003651077489e+00  -6.6328905920330392e+00  -6.6272272446779867e+00  -6.5992592961025442e+00  -6.6247533385453670e+00  -6.5953479670762070e+00  -6.6235021894531982e+00  -6.5894049688607028e+00  -6.6217396682699681e+00  -6.5831233534301390e+00  -6.6174690290583271e+00  -6.5735866200819135e+00  -6.6098956276728655e+00  -6.5596495494293521e+00  -6.5969066049342420e+00  -6.5419731058000394e+00  -6.5793912158176813e+00  -6.5210105361682551e+00  -6.5606374081765759e+00  -6.5007840635981928e+00  -6.5411016290137205e+00  -6.4800529414147485e+00  -6.6110665370487736e+00  -6.4361505662012446e+00  -6.4182134690459636e+00  -6.5876143501930144e+00  -6.6646861299012468e+00  -6.3747548292506782e+00  -6.3557500950763490e+00  -6.3185535387414440e+00  -6.2962715942062895e+00  -6.2596126453443306e+00  -6.2380973878358779e+00  -6.2022361283607959e+00  -6.1821391142375912e+00  -6.1441377894477567e+00  -6.1255220521711733e+00  -6.0843040620593287e+00  -6.0593896288212852e+00  -6.0215534668422404e+00  -5.9976276465585316e+00  -5.9581576035006760e+00  -5.9308378877229657e+00  -5.8931571774616449e+00  -5.8674755539886085e+00  -5.8288223132100292e+00  -5.8028876239598519e+00  -5.7643773482991634e+00  -5.7395745108169933e+00  -5.7006722394782274e+00  -5.6747328829590034e+00  -5.6376804524858422e+00  -6.6351158511787496e+00  -6.7103365384027560e+00  -5.6088655396215614e+00  -5.5703896204437315e+00  -5.5434642319586684e+00  -5.5070137669667281e+00  -5.4790615747446640e+00  -5.4452872082728128e+00  -5.4132612981548975e+00  -5.3805570948892090e+00  -5.3461074117485348e+00  -5.3136519790037333e+00  -6.4009805423890684e+00  -5.2776791588568432e+00  -5.2446994143735290e+00  -5.2076859956173100e+00  -5.1739980419399227e+00  -5.1363861553797978e+00  -5.1016829783302526e+00  -6.6796883627787258e+00  -6.7525196260172029e+00  -6.6543414363299833e+00  -5.0636279380492102e+00  -5.0273489812218930e+00  -6.7522081270854928e+00  -4.9896725236472124e+00  -4.9517663186378735e+00  -4.9149715185019396e+00  -4.8754787585512789e+00  -4.8397917673943036e+00  -4.7982847846486889e+00  -6.2256991702156039e+00  -4.7647193419966491e+00  -4.7210683252523262e+00  -4.6888702263489872e+00  -4.6437941360209711e+00  -4.6131483387602739e+00  -4.5666590150734923e+00  -6.5066411483112043e+00  -6.0358299225506453e+00  -4.5373959040612180e+00  -4.4899942658737766e+00  -6.7192833346698375e+00  -6.7979679292500679e+00  -6.6493055013620692e+00  -5.8409627102670427e+00  -4.4623356696336192e+00  -4.4119239426701640e+00  -4.3862260148800560e+00  -4.3342751557905173e+00  -4.3096500280492425e+00  -4.2587430927932788e+00  -5.0641118901937929e+00  -4.4378885267762467e+00  -4.8340462456822975e+00  -5.2793753154825920e+00  -4.2330652897889438e+00  -4.1831308061829082e+00  -4.2092311047471647e+00  -4.1348380847761641e+00  -4.1071701105737484e+00  -4.0607582652365162e+00  -4.0308814413513545e+00  -3.9846781276201213e+00  -3.9539503039671291e+00  -3.9072266748504330e+00  -3.8765671600636447e+00  -3.8301338859313780e+00  -3.7987004262761284e+00  -3.7527369721897998e+00  -3.7207366771765780e+00  -3.6748124692112234e+00  -3.6418766545786405e+00  -3.5962566785111552e+00  -3.5627590630906982e+00  -3.5170007477148957e+00  -3.4831787255411450e+00  -3.4376233909155287e+00  -3.4034373435285623e+00  -3.3575685778985762e+00  -5.4725324854163917e+00  -5.6439780710679992e+00  -3.3230413952536320e+00  -3.2774152723870746e+00  -3.2420732357379300e+00  -3.1961948949859420e+00  -6.2262247434230549e+00  -3.1597876914353065e+00  -3.1145599602352854e+00  -5.7917836719245859e+00  -5.9842706672915549e+00  -6.7528838465482552e+00  -6.8165704377867806e+00  -6.8729774246608013e+00  -6.8914083636908723e+00  -6.9442548073991039e+00  -6.9571627536538756e+00  -7.0091777917492957e+00  -7.0147559948047453e+00  -7.0695181911756944e+00  -7.0645882026961599e+00  -7.1217813993569550e+00  -7.1051563381112528e+00  -7.1651429440693262e+00  -7.1408957705012188e+00  -7.2062938823791409e+00  -7.1722774310433746e+00  -7.2202055146390718e+00  -7.1841106268711394e+00  -7.2295504824588788e+00  -7.2002267397899544e+00  -7.2332976361672632e+00  -7.2045545846220760e+00  -7.2311547336044670e+00  -7.2044197491187463e+00  -7.2254420178239167e+00  -7.2014036943484809e+00  -7.2180352375568413e+00  -7.1967098453938414e+00  -7.1745881708413526e+00  -7.1797848571794995e+00  -7.1773052099321433e+00  -7.1909376963106499e+00  -7.1738239678788416e+00  -7.1844791750530943e+00  -7.1695025208484902e+00  -7.1779285276982963e+00  -7.1647312788220638e+00  -7.1589719439573107e+00  -7.1732946137427502e+00  -7.1598038537500637e+00  -7.1649164366368501e+00  -7.1543094371737093e+00  -7.1485146105883715e+00  -7.1443971829709483e+00  -7.1489129757252119e+00  -7.1401377578332488e+00  -7.1432612746113202e+00  -7.1356399383509963e+00  -6.9950716216647928e+00  -7.1377905474563486e+00  -7.1310994637405534e+00  -7.1281095661055662e+00  -7.1243352326676002e+00  -7.1266650525811279e+00  -7.1204366490408342e+00  -7.1222099439689233e+00  -7.1164402440620576e+00  -7.2288018226625672e+00  -7.1272914803779504e+00  -7.1306101228882266e+00  -7.2643882757125740e+00  -7.1179358629237521e+00  -7.1123884625010021e+00  -7.1109038248081697e+00  -7.1071510723334335e+00  -7.1082433704612340e+00  -7.1033247426947295e+00  -7.1040290436781621e+00  -7.0993845986790181e+00  -7.0986046898162405e+00  -7.0949351447570841e+00  -7.0953424487478047e+00  -7.0911114778237225e+00  -7.1384447845408046e+00  -7.0912391124559555e+00  -7.0872387040421705e+00  -7.2625109210999721e+00  -7.0082375710758535e+00  -7.1211898140066907e+00  -7.2416091082960339e+00  -7.0871755364265878e+00  -7.0832069360523837e+00  -7.0835023663234713e+00  -7.0793261589119085e+00  -7.0792362768614971e+00  -7.0752900466038255e+00  -7.0753835248449333e+00  -7.0714245603429369e+00  -7.0712196116841488e+00  -7.0674272096901145e+00  -7.1923254581838725e+00  -7.0671328913607896e+00  -7.0633282827115824e+00  -7.0939872369072257e+00  -7.1500193354224653e+00  -5.4453482057838780e+00  -7.1755531930433998e+00  -7.0636463339676849e+00  -7.0595722089950703e+00  -7.0591939595708633e+00  -7.0554737734833033e+00  -3.0779038807853212e+00  -3.0330454187954232e+00  -2.9964609627880519e+00  -2.9504198760429197e+00  -2.9137279466959956e+00  -2.8672781821086408e+00  -7.0548788902046651e+00  -7.0512381549694014e+00  -5.0975533270291917e+00  -7.0517269383246504e+00  -7.0475416136384332e+00  -7.0471392270364088e+00  -7.0433644152296981e+00  -6.6559276357070019e+00  -6.8594486077878907e+00  -7.1282826495996101e+00  -3.7842615326744315e+00  -2.8303423602682849e+00  -2.7843619380599756e+00  -4.1628563581576792e+00  -3.3941371883974063e+00  -2.8211860099963726e+00  -2.7388955622909381e+00  -2.7012636989482171e+00  -2.6558740256450548e+00  -2.6177988809013661e+00  -2.5721777695870101e+00  -2.5339100624765249e+00  -2.4892693476705925e+00  -2.4497121859145961e+00  -2.4049675033010605e+00  -2.3649289550583728e+00  -2.3189884252042012e+00  -2.2795303847298998e+00  -2.2332793117405951e+00  -2.1935767299420057e+00  -2.1471834001375036e+00  -2.108190817802105