<?xml version="1.0"?>
<VTKFile type="UnstructuredGrid"  version="0.1"  >
<UnstructuredGrid>
<Piece  NumberOfPoints="2945" NumberOfCells="5525">
<Points>
<DataArray  type="Float64"  NumberOfComponents="3"  format="ascii">0 0.1 0  0.95 0.1 0  1 0.1 0  1 0 0  1.5 0 0  3 0 0  3 0.3 0  0 0.3 0  0.0197424558707114 0.1 0  0.03915669042224804 0.1 0  0.05824816022699029 0.1 0  0.07702223050332387 0.1 0  0.09548417327144595 0.1 0  0.1136391897583987 0.1 0  0.1314923700144587 0.1 0  0.1490487330862866 0.1 0  0.1663132263225292 0.1 0  0.1832906857273058 0.1 0  0.1999858946008978 0.1 0  0.216403545770297 0.1 0  0.2325482404045023 0.1 0  0.2484245348165176 0.1 0  0.2640368740372501 0.1 0  0.2793896589642241 0.1 0  0.2944872056237027 0.1 0  0.3093337469555254 0.1 0  0.3239334613687816 0.1 0  0.3382904528528069 0.1 0  0.3524087553122972 0.1 0  0.3662923366391824 0.1 0  0.3799451014768399 0.1 0  0.393370886920506 0.1 0  0.4065734648871676 0.1 0  0.419556546320114 0.1 0  0.4323237821343415 0.1 0  0.4448787573056132 0.1 0  0.4572250047274954 0.1 0  0.4693659926332938 0.1 0  0.4813051343276231 0.1 0  0.4930457849308193 0.1 0  0.5045912455271677 0.1 0  0.5159447600209797 0.1 0  0.5271095174127136 0.1 0  0.5380886618453393 0.1 0  0.5488852725463512 0.1 0  0.5595023868312478 0.1 0  0.5699429904313016 0.1 0  0.5802100167387366 0.1 0  0.5903063508274641 0.1 0  0.6002348329443006 0.1 0  0.6099982499579832 0.1 0  0.6195993483501782 0.1 0  0.6290408246013842 0.1 0  0.6383253354321616 0.1 0  0.6474554910757137 0.1 0  0.6564338522440513 0.1 0  0.6652629482939147 0.1 0  0.6739452579188948 0.1 0  0.6824832240165607 0.1 0  0.6908792415022103 0.1 0  0.6991356755989045 0.1 0  0.7072548438546967 0.1 0  0.7152390281534421 0.1 0  0.7230904746196039 0.1 0  0.7308113906759266 0.1 0  0.7384039435269326 0.1 0  0.7458702676581656 0.1 0  0.7532124631720397 0.1 0  0.7604325921167397 0.1 0  0.7675326856666862 0.1 0  0.7745147374421916 0.1 0  0.7813807123989068 0.1 0  0.7881325374362798 0.1 0  0.7947721131625659 0.1 0  0.8013013031866276 0.1 0  0.8077219449067021 0.1 0  0.8140358419942376 0.1 0  0.8202447685401882 0.1 0  0.8263504700910924 0.1 0  0.8323546643163114 0.1 0  0.8382590362474568 0.1 0  0.8440652473522128 0.1 0  0.8497749272799842 0.1 0  0.8553896837646281 0.1 0  0.8609110933285474 0.1 0  0.866340708855119 0.1 0  0.8716800550492284 0.1 0  0.8769306339052932 0.1 0  0.8820939206038667 0.1 0  0.8871713655604893 0.1 0  0.8921643975475726 0.1 0  0.8970744196575535 0.1 0  0.9019028106970642 0.1 0  0.9066509291259979 0.1 0  0.9113201098984042 0.1 0  0.9159116634553873 0.1 0  0.9204268818729691 0.1 0  0.9248670319440222 0.1 0  0.9292333656649013 0.1 0  0.9335271075812669 0.1 0  0.9377494640511216 0.1 0  0.941901623463222 0.1 0  0.9459847526686701 0.1 0  0.9538461538461205 0.1 0  0.9576923076922409 0.1 0  0.9615384615384381 0.1 0  0.9653846153846337 0.1 0  0.9692307692307542 0.1 0  0.9730769230768747 0.1 0  0.9769230769229952 0.1 0  0.9807692307691157 0.1 0  0.9846153846152361 0.1 0  0.9884615384614317 0.1 0  0.9923076923076356 0.1 0  0.9961538461538395 0.1 0  1 0.09591793123533533 0  1 0.09133596463859224 0  1 0.08619288104391448 0  1 0.08041996484521211 0  1 0.07394008421771697 0  1 0.06666666567302955 0  1 0.05850252932209174 0  1 0.04933859630113544 0  1 0.03905242821848202 0  1 0.02750659386753798 0  1 0.01454683679239736 0  1.015625 0 0  1.03125 0 0  1.046875 0 0  1.0625 0 0  1.078125 0 0  1.09375 0 0  1.109375 0 0  1.125 0 0  1.140625 0 0  1.15625 0 0  1.171875 0 0  1.1875 0 0  1.203125 0 0  1.21875 0 0  1.234375 0 0  1.25 0 0  1.265625 0 0  1.28125 0 0  1.296875 0 0  1.3125 0 0  1.328125 0 0  1.34375 0 0  1.359375 0 0  1.375 0 0  1.390625 0 0  1.40625 0 0  1.421875 0 0  1.4375 0 0  1.453125 0 0  1.46875 0 0  1.484375 0 0  1.515920751924515 0 0  1.531989369316721 0 0  1.54820720925872 0 0  1.564575665560501 0 0  1.581096138674279 0 0  1.597770029901263 0 0  1.614598783332311 0 0  1.631583831055205 0 0  1.64872661129721 0 0  1.666028606716533 0 0  1.683491276608443 0 0  1.701116134125304 0 0  1.718904673324128 0 0  1.736858414799339 0 0  1.754978895814663 0 0  1.773267661782904 0 0  1.791726281103402 0 0  1.810356325314689 0 0  1.8291593848892 0 0  1.848137076690385 0 0  1.867291007717254 0 0  1.886622833871288 0 0  1.90613418642363 0 0  1.925826753299799 0 0  1.945702199101513 0 0  1.96576223584749 0 0  1.986008569283268 0 0  2.006442931928877 0 0  2.02706707547783 0 0  2.047882750887917 0 0  2.06889175187935 0 0  2.090095860038271 0 0  2.111496891648636 0 0  2.133096679109554 0 0  2.154897066851056 0 0  2.176899916687499 0 0  2.199107102752146 0 0  2.22152053937028 0 0  2.244142122958061 0 0  2.266973806444078 0 0  2.290017523268154 0 0  2.313275249499252 0 0  2.336748971745516 0 0  2.360440702338606 0 0  2.384352453384031 0 0  2.408486280477412 0 0  2.432844240041185 0 0  2.457428414757088 0 0  2.482240901796653 0 0  2.507283830121838 0 0  2.532559332080812 0 0  2.558069568787417 0 0  2.583816724966441 0 0  2.60980299606584 0 0  2.636030600971886 0 0  2.662501790984011 0 0  2.689218818279327 0 0  2.716183964547616 0 0  2.743399548861297 0 0  2.77086788244719 0 0  2.798591312896326 0 0  2.826572223178268 0 0  2.854812990138617 0 0  2.883316031690714 0 0  2.912083780657189 0 0  2.941118704633482 0 0  2.970423276998917 0 0  3 0.02999999999994495 0  3 0.05999999999987042 0  3 0.089999999999783 0  3 0.119999999999701 0  3 0.149999999999619 0  3 0.179999999999692 0  3 0.2099999999997737 0  3 0.2399999999998511 0  3 0.2699999999999185 0  2.970138294777171 0.3 0  2.940375666438236 0.3 0  2.910711782853056 0.3 0  2.881146331305122 0.3 0  2.851678975030285 0.3 0  2.822309388626621 0.3 0  2.793037250095074 0.3 0  2.76386223529133 0.3 0  2.734784017903872 0.3 0  2.705802289276642 0.3 0  2.676916713794697 0.3 0  2.648126987654635 0.3 0  2.619432780406184 0.3 0  2.590833779385199 0.3 0  2.562329669847737 0.3 0  2.533920134950189 0.3 0  2.505604855727852 0.3 0  2.477383539822502 0.3 0  2.449255847639465 0.3 0  2.421221492569094 0.3 0  2.393280152486815 0.3 0  2.36543151914496 0.3 0  2.337675285481809 0.3 0  2.310011142385583 0.3 0  2.282438797441587 0.3 0  2.254957931061538 0.3 0  2.227568248063605 0.3 0  2.200269436651085 0.3 0  2.173061204949961 0.3 0  2.145943251515011 0.3 0  2.118915272469994 0.3 0  2.091976978084957 0.3 0  2.065128060700849 0.3 0  2.038368218849433 0.3 0  2.01169717777258 0.3 0  1.985114624111908 0.3 0  1.958620267850966 0.3 0  1.93221382054972 0.3 0  1.905894991850698 0.3 0  1.879663489459713 0.3 0  1.853519019126419 0.3 0  1.827461291053897 0.3 0  1.801490031354372 0.3 0  1.775604937580312 0.3 0  1.74980572560258 0.3 0  1.724092118631866 0.3 0  1.698463829173586 0.3 0  1.672920575782554 0.3 0  1.647462076974085 0.3 0  1.622088043536933 0.3 0  1.5967981978949 0.3 0  1.571592267767068 0.3 0  1.546469970305736 0.3 0  1.521431023814044 0.3 0  1.496475156230927 0.3 0  1.471602093687753 0.3 0  1.446811560490646 0.3 0  1.422103279101731 0.3 0  1.397476971708191 0.3 0  1.37293238939876 0.3 0  1.348469231419202 0.3 0  1.324087248732772 0.3 0  1.299786165921677 0.3 0  1.275565710847046 0.3 0  1.251425617644257 0.3 0  1.227365618676339 0.3 0  1.203385446174014 0.3 0  1.179484853067473 0.3 0  1.155663548773374 0.3 0  1.131921292279077 0.3 0  1.108257802159295 0.3 0  1.084672829009693 0.3 0  1.061166115303374 0.3 0  1.037737392995421 0.3 0  1.01438640299116 0.3 0  0.991112899770314 0.3 0  0.9679166155523955 0.3 0  0.944797284182564 0.3 0  0.921754678526042 0.3 0  0.8987885143602501 0.3 0  0.8758985548820624 0.3 0  0.8530845484099929 0.3 0  0.8303462351786988 0.3 0  0.8076833651172373 0.3 0  0.7850956864865304 0.3 0  0.7625829601354557 0.3 0  0.7401449314598274 0.3 0  0.717781337993959 0.3 0  0.6954919649675473 0.3 0  0.6732765357561226 0.3 0  0.6511348120768439 0.3 0  0.6290665642016573 0.3 0  0.6070715355430467 0.3 0  0.5851494825775325 0.3 0  0.5633001690203812 0.3 0  0.5415233562273221 0.3 0  0.5198187909431873 0.3 0  0.4981862401387795 0.3 0  0.4766254686134248 0.3 0  0.4551362360485234 0.3 0  0.4337182975262159 0.3 0  0.4123714223228037 0.3 0  0.3910953802377493 0.3 0  0.3698899313205595 0.3 0  0.3487548463710963 0.3 0  0.3276898864081783 0.3 0  0.3066948129116018 0.3 0  0.2857694003037476 0.3 0  0.2649134227095047 0.3 0  0.2441266417321288 0.3 0  0.2234088223399122 0.3 0  0.2027597568977288 0.3 0  0.1821792020676698 0.3 0  0.1616669305402443 0.3 0  0.1412227158799362 0.3 0  0.12084633013886 0.3 0  0.1005375673448281 0.3 0  0.08029618164595353 0.3 0  0.06012194778526769 0.3 0  0.04001466495039718 0.3 0  0.01997408913631205 0.3 0  0 0.2800000000000553 0  0 0.2600000000001105 0  0 0.2400000000001658 0  0 0.2200000000002211 0  0 0.2000000000002764 0  0 0.1800000000002244 0  0 0.1600000000001691 0  0 0.140000000000115 0  0 0.1200000000000564 0  1.133778471000506 0.01219539743990768 0  1.003741919047894 0.09354664821474232 0  0.9559421147150347 0.1035858189992458 0  0.9313792160389045 0.1037365237938103 0  0.9788461538460573 0.1033060829993555 0  0.9090102438250753 0.1037269304984056 0  0.8846304212778655 0.1043349840723655 0  0.8581503885465881 0.104741932962923 0  0.8286416220145676 0.1052762843984476 0  0.7982741772533339 0.1053575624517407 0  0.7708789559342691 0.1060290465840416 0  0.741870349714261 0.1078220590984258 0  0.7112469360040695 0.10685702926368 0  0.6783901541417233 0.1079959711853378 0  0.642884733623195 0.1075561996086514 0  0.6056235042367955 0.1085956039602543 0  0.5647007593786924 0.1083187281660325 0  1.1953125 0.01353164693413185 0  1.258148737344733 0.01268350115427042 0  1.320087046516829 0.01426312402966312 0  1.383495130751951 0.01432665475473204 0  1.4453125 0.01315663539200989 0  1.50886768312388 0.01395488397722681 0  0.9942307692307371 0.103330866937657 0  1.119309781943483 0.2802014914557878 0  1.572831235329714 0.01707210522554785 0  1.637611634353954 0.01209340368483431 0  1.709661292005932 0.0146870244871893 0  1.006561890631532 0.07068055446055937 0  1.784793444007901 0.01499371444634687 0  1.855459587353174 0.0
[...]
<PointData  Scalars="pressure"> 
<DataArray  type="Float64"  Name="pressure"  format="ascii">-4.5685265331416298e+00  -5.1195582870000349e+00  -4.8517264480988276e+00  -4.4991848800885528e+00  -3.4416296900410619e+00  0.0000000000000000e+00  0.0000000000000000e+00  -4.5685115597726957e+00  -4.5744492595683921e+00  -4.5802736990312125e+00  -4.5860015373908771e+00  -4.5916344124695438e+00  -4.5971739694734328e+00  -4.6026217663118532e+00  -4.6079793849110793e+00  -4.6132484185367986e+00  -4.6184303075326048e+00  -4.6235266819834058e+00  -4.6285390374984337e+00  -4.6334687717404561e+00  -4.6383174463978891e+00  -4.6430864707293962e+00  -4.6477773659900015e+00  -4.6523915254822237e+00  -4.6569304945774599e+00  -4.6613956080844776e+00  -4.6657884344039653e+00  -4.6701102899567406e+00  -4.6743628723581869e+00  -4.6785475298563801e+00  -4.6826653312005160e+00  -4.6867184566173474e+00  -4.6907080309124289e+00  -4.6946358408811975e+00  -4.6985031969584874e+00  -4.7023115501464989e+00  -4.7060632747690487e+00  -4.7097590773064377e+00  -4.7134017204830592e+00  -4.7169914092666643e+00  -4.7205316820548724e+00  -4.7240235966185997e+00  -4.7274693231290890e+00  -4.7308705736160350e+00  -4.7342298173286528e+00  -4.7375490937271829e+00  -4.7408305550562311e+00  -4.7440770100259035e+00  -4.7472909403335830e+00  -4.7504746560775031e+00  -4.7536317770603880e+00  -4.7567641779615331e+00  -4.7598752286022288e+00  -4.7629687372082454e+00  -4.7660480133856034e+00  -4.7691163180467830e+00  -4.7721782047408361e+00  -4.7752349948473727e+00  -4.7782994056556785e+00  -4.7813598641455943e+00  -4.7844417463405149e+00  -4.7875331130335592e+00  -4.7906472044193968e+00  -4.7937875305865747e+00  -4.7969608424903623e+00  -4.8001709281686269e+00  -4.8034419989367469e+00  -4.8067471555094814e+00  -4.8101121934417774e+00  -4.8135563870520199e+00  -4.8170741993362798e+00  -4.8206891052687508e+00  -4.8243742023515725e+00  -4.8281791849684872e+00  -4.8320984539550489e+00  -4.8361489793308463e+00  -4.8403426342155438e+00  -4.8446841396451932e+00  -4.8491943761354248e+00  -4.8538921225431499e+00  -4.8587990802625374e+00  -4.8639132318674401e+00  -4.8692647417638213e+00  -4.8748949399017922e+00  -4.8807972803454982e+00  -4.8870083932981760e+00  -4.8935937078679972e+00  -4.9005454015038241e+00  -4.9078869332795820e+00  -4.9157193577788743e+00  -4.9240639957237553e+00  -4.9329788363710785e+00  -4.9425073304199678e+00  -4.9528007166672756e+00  -4.9638924036437739e+00  -4.9759071785036681e+00  -4.9890043555655810e+00  -5.0034410748486895e+00  -5.0193736505321676e+00  -5.0371310351405345e+00  -5.0571051576105859e+00  -5.0796570791189293e+00  -5.1087167839690126e+00  -5.2008820986814577e+00  -5.2818985321356671e+00  -5.3407081746091043e+00  -5.3813252341343905e+00  -5.4005058619463062e+00  -5.3992153012932498e+00  -5.3776905393346661e+00  -5.3376480881950270e+00  -5.2799347937268868e+00  -5.2068630231921462e+00  -5.1182261754445726e+00  -5.0347083418172147e+00  -4.7269175249689690e+00  -4.6927022556855222e+00  -4.6552156293160420e+00  -4.6238603516975552e+00  -4.5970198107587663e+00  -4.5730423303906234e+00  -4.5520082926387833e+00  -4.5339136825998816e+00  -4.5187935313817054e+00  -4.5072517378717523e+00  -4.5002844679157157e+00  -4.4974441480797491e+00  -4.4881972516784225e+00  -4.4723024049015727e+00  -4.4509239551695243e+00  -4.4250827353871021e+00  -4.3966159720831408e+00  -4.3667027538483376e+00  -4.3351520676817072e+00  -4.3026116238945988e+00  -4.2696713947905582e+00  -4.2363362854227535e+00  -4.2027681819721332e+00  -4.1691722805107361e+00  -4.1353940867618642e+00  -4.1014169576439672e+00  -4.0672009711718653e+00  -4.0326646729177762e+00  -3.9974800719103851e+00  -3.9616845886745589e+00  -3.9257875223456602e+00  -3.8879670942005005e+00  -3.8504504271360744e+00  -3.8114868921990448e+00  -3.7719242094148395e+00  -3.7311800478164563e+00  -3.6914190361397310e+00  -3.6496925505527793e+00  -3.6082831807390705e+00  -3.5666188118851485e+00  -3.5249229278642189e+00  -3.4832373747840557e+00  -3.3994194879872404e+00  -3.3571841296913960e+00  -3.3148674808384344e+00  -3.2726981925186363e+00  -3.2296495970425170e+00  -3.1871237968975783e+00  -3.1440839156898144e+00  -3.1024162460190059e+00  -3.0599321695156658e+00  -3.0170988761052362e+00  -2.9742786098047302e+00  -2.9315538805346004e+00  -2.8886242987206474e+00  -2.8456358535013000e+00  -2.8023909711906212e+00  -2.7589608081098245e+00  -2.7154115344872021e+00  -2.6725067353378873e+00  -2.6278353420880038e+00  -2.5845586949462480e+00  -2.5401884556166303e+00  -2.4954522720133951e+00  -2.4508140619829031e+00  -2.4056206633486528e+00  -2.3604443671067994e+00  -2.3136013813382394e+00  -2.2679593218462384e+00  -2.2215169590344557e+00  -2.1748909309626887e+00  -2.1285613782407982e+00  -2.0810792463470928e+00  -2.0329116655690598e+00  -1.9844201890080753e+00  -1.9359430655765615e+00  -1.8867559686261348e+00  -1.8372539351206212e+00  -1.7871256834787348e+00  -1.7367499768746935e+00  -1.6858417422343712e+00  -1.6344456235652056e+00  -1.5825887158752159e+00  -1.5303758815308466e+00  -1.4776484749806698e+00  -1.4244400922091818e+00  -1.3706182201398076e+00  -1.3166671779116785e+00  -1.2622242941719537e+00  -1.2069250191924834e+00  -1.1513359106880396e+00  -1.0965479583186606e+00  -1.0386241983184969e+00  -9.8301500305052569e-01  -9.2422267430260852e-01  -8.6616873033486874e-01  -8.0916629757243164e-01  -7.4854793406167952e-01  -6.9044493396712681e-01  -6.2972079901444222e-01  -5.6877063175655906e-01  -5.0758169922597063e-01  -4.4783947903654331e-01  -3.8448477852258195e-01  -3.2197200969023954e-01  -2.5864441972121344e-01  -1.9343659736711416e-01  -1.3139345211997253e-01  -6.5475370972081795e-02  0.0000000000000000e+00  0.0000000000000000e+00  0.0000000000000000e+00  0.0000000000000000e+00  0.0000000000000000e+00  0.0000000000000000e+00  0.0000000000000000e+00  0.0000000000000000e+00  0.0000000000000000e+00  -6.5431512958933694e-02  -1.3050447355210343e-01  -1.9809072825341423e-01  -2.6332094182355614e-01  -3.2839433050989558e-01  -3.9324544750742824e-01  -4.5817293259552250e-01  -5.2294831129870878e-01  -5.8754022763557545e-01  -6.5195723506026604e-01  -7.1624575908424482e-01  -7.8032429505837420e-01  -8.4421907103723637e-01  -9.0798969008715036e-01  -9.7161726628691025e-01  -1.0351738603232845e+00  -1.0985801349157109e+00  -1.1617884447654898e+00  -1.2248953765726938e+00  -1.2878967231387481e+00  -1.3508354850987621e+00  -1.4136472933866213e+00  -1.4763400579784920e+00  -1.5389348644381133e+00  -1.6019209570487871e+00  -1.6644197997686385e+00  -1.7267520152760583e+00  -1.7890973660960958e+00  -1.8509382837222410e+00  -1.9129088740275171e+00  -1.9751910790360405e+00  -2.0377905450193490e+00  -2.1008252699753212e+00  -2.1622810253899796e+00  -2.2245096809328069e+00  -2.2860954477592568e+00  -2.3490538529909024e+00  -2.4107514254229301e+00  -2.4725801043810303e+00  -2.5357296412812032e+00  -2.5962804505214518e+00  -2.6589597160348810e+00  -2.7212605134732262e+00  -2.7834966886204038e+00  -2.8457577461049071e+00  -2.9080759222516361e+00  -2.9698007552461396e+00  -3.0316070665003223e+00  -3.0943150791130538e+00  -3.1564580277380294e+00  -3.2180259860156437e+00  -3.2789543508413290e+00  -3.3417316346237702e+00  -3.4021168796168753e+00  -3.4621684847513854e+00  -3.5219396746205116e+00  -3.5813408804961506e+00  -3.6400692858435821e+00  -3.6985739690677515e+00  -3.7570016182748835e+00  -3.8154264094334596e+00  -3.8736496933203366e+00  -3.9330199718953813e+00  -3.9924949458543106e+00  -4.0522978798582656e+00  -4.1118752345054466e+00  -4.1724668589805365e+00  -4.2329940821895606e+00  -4.2934430917391433e+00  -4.3535196835600622e+00  -4.4123499376951445e+00  -4.4705569238743887e+00  -4.5249897779319870e+00  -4.5757015414544364e+00  -4.6211391652706260e+00  -4.6624272829556599e+00  -4.6970736237484703e+00  -4.7257970321903331e+00  -4.7481932570698255e+00  -4.7639791273477901e+00  -4.7751978952417549e+00  -4.7821896885843422e+00  -4.7860573263089403e+00  -4.7871858020798079e+00  -4.7862738756790506e+00  -4.7838628629149955e+00  -4.7804511424722183e+00  -4.7762003888435203e+00  -4.7713249680490533e+00  -4.7660478725876541e+00  -4.7604373990023108e+00  -4.7546086140286379e+00  -4.7486103033890092e+00  -4.7424878848259509e+00  -4.7362793367188187e+00  -4.7300186800645072e+00  -4.7237129813383767e+00  -4.7173834200593614e+00  -4.7110392202589173e+00  -4.7046912766958364e+00  -4.6983437319032468e+00  -4.6919990877091706e+00  -4.6856640040087241e+00  -4.6793396670964009e+00  -4.6730292199119452e+00  -4.6667330496565187e+00  -4.6604529308674296e+00  -4.6541905276334701e+00  -4.6479451818826112e+00  -4.6417187891291398e+00  -4.6355108545816517e+00  -4.6293219984304086e+00  -4.6231526170742461e+00  -4.6170025278204987e+00  -4.6108721005647908e+00  -4.6047613419727398e+00  -4.5986703096304078e+00  -4.5925990330792743e+00  -4.5865475152074175e+00  -4.5805157637425014e+00  -4.5745037808675661e+00  -4.5685116047040379e+00  -4.5685122318463049e+00  -4.5685137743682196e+00  -4.5685161541255210e+00  -4.5685190425586741e+00  -4.5685219262100416e+00  -4.5685243149183075e+00  -4.5685258455278293e+00  -4.5685264758289197e+00  -4.3168877565635642e+00  -4.7131034582654001e+00  -5.2255113116211680e+00  -5.0288828625725852e+00  -5.2831055020001907e+00  -4.9586886367399048e+00  -4.9119896665157565e+00  -4.8779628912894530e+00  -4.8510840927363494e+00  -4.8303482576055821e+00  -4.8152935283522265e+00  -4.8017260097404124e+00  -4.7891191913396849e+00  -4.7768522807505027e+00  -4.7645224959656076e+00  -4.7522288464444191e+00  -4.7391903539040445e+00  -4.1857832490181517e+00  -4.0489955866902481e+00  -3.9073998127061795e+00  -3.7502662548565739e+00  -3.5877568462727325e+00  -3.4184971155863049e+00  -5.0220200460465545e+00  -4.3851089168337962e+00  -3.2515371641380955e+00  -3.0875684356195507e+00  -2.9112458044355924e+00  -4.5868338266110547e+00  -2.7322949379638950e+00  -2.5675775753024781e+00  -4.7258590352639649e+00  -2.3829543466382512e+00  -4.1419047584350999e+00  -3.9020431967488820e+00  -2.1907793966196438e+00  -3.6678545208777935e+00  -4.7113712554914082e+00  -3.3790134904299922e+00  -2.0114720594423652e+00  -4.6972359716132202e+00  -4.4103344859865565e+00  -1.8121711442869100e+00  -3.0619774442127610e+00  -4.5484105216710873e+00  -4.6810687197483967e+00  -1.6085533726043015e+00  -2.6901120613179188e+00  -4.6632962682293071e+00  -2.5074938159637323e+00  -1.3976288334190361e+00  -2.3135100848208077e+00  -4.7100043946175632e+00  -1.1730847525986414e+00  -4.6454323491966107e+00  -2.1298210959754194e+00  -4.7704717714663269e+00  -4.7871408991912983e+00  -1.9428728438163172e+00  -9.5489063586383838e-01  -4.6255355489856713e+00  -4.6107316092162218e+00  -2.8767565612220514e+00  -7.7916718936070983e-01  -5.9298762018258344e-01  -4.7786647706572341e+00  -1.7560765219597971e+00  -1.5035083351860499e+00  -4.7630767400762704e+00  -5.0938319885536369e+00  -5.3308161972057100e+00  -4.7457276845421861e+00  -1.3189357596527329e+00  -4.1860722279366736e-01  -4.7214134710435314e+00  -1.0669147539468824e+00  -4.6890064205488180e+00  -8.7642075315939094e-01  -4.6573213575792716e+00  -6.8471367552417761e-01  -4.6387164036675346e+00  -4.6018463754055245e+00  -4.6199323076831460e+00  -4.9078785066908365e-01  -4.5735622484482432e+00  -6.0802709436288502e-02  -4.5942145900402940e+00  -4.5246742206687305e+00  -3.0165029044500336e-01  -2.2158989636261051e-01  -4.6381691193948491e+00  -4.4641397692170086e+00  -4.6390896350567949e+00  -4.2647723759678673e+00  -4.7854002507708602e+00  -4.7331140643184382e+00  -4.7081719775773854e+00  -4.6754469561771934e+00  -3.2482509778124848e+00  -3.5495128628743280e+00  -3.7798560922500846e+00  -4.0215111335147320e+00  -4.6358934196361101e+00  -4.6545803248554360e+00  -1.6328810575188593e+00  -1.1936139666440366e+00  -4.6717722283448078e+00  -1.0704810717940081e+00  -4.5896699377744463e+00  -1.2866404544668588e+00  -1.5040171878988577e+00  -4.6890205289792783e+00  -1.7112667076304457e+00  -4.5735923769421607e+00  -1.9126882308362667e+00  -4.7040891116323422e+00  -2.1113686496505348e+00  -2.2859309839813364e+00  -3.3363835605858148e+00  -2.4775714542072147e+00  -4.7189010864117256e+00  -2.6504383772914597e+00  -2.8243254886562816e+00  -2.9982174847698886e+00  -4.7326700442769010e+00  -3.1641461972591851e+00  -5.1475733065164425e-02  -4.7456909755345933e+00  -4.7583731819202608e+00  -4.7709262455824275e+00  -4.7825702001648942e+00  -4.7956168218464699e+00  -4.8084995969231343e+00  -4.8229546266254086e+00  -4.8425815007954389e+00  -4.2509487772649974e+00  -4.8666870070098494e+00  -4.8973681660149229e+00  -4.9380121166312447e+00  -4.1182001247030797e+00  -4.9944902241255251e+00  -3.8323236637898845e+00  -3.9762919335752378e+00  -3.6766579617313822e+00  -3.5043844604765448e+00  -4.5731702602187925e+00  -5.1763508188865419e+00  -6.1393142800061279e-02  -4.5831762810537038e+00  -1.6406550883656582e-01  -4.4938699486765099e+00  -5.1617788099825673e-02  -4.5730350326167768e+00  -4.4818655015537123e+00  -4.4779145534550340e+00  -4.4600782400863208e+00  -4.4755734557258569e+00  -4.4569696934856715e+00  -4.4736866457289981e+00  -4.4525058090391871e+00  -4.4712624680549098e+00  -4.4478051461393484e+00  -4.4671304953005446e+00  -4.4413487893128094e+00  -4.4610799401904471e+00  -4.4326960987959572e+00  -4.4523277155868177e+00  -4.4224468488103392e+00  -4.4417080652868952e+00  -4.4108636321203054e+00  -4.4309032336671130e+00  -4.3997553040243869e+00  -4.4203650960361562e+00  -4.3877637403090350e+00  -4.4574131691875607e+00  -4.3644455456535809e+00  -4.3529547236903507e+00  -4.4461425993577199e+00  -4.4896398015621113e+00  -4.3280003251443580e+00  -4.3150725870006434e+00  -4.2922675617238664e+00  -4.2767258134260802e+00  -4.2530765998131761e+00  -4.2379185669497650e+00  -4.2143362664492496e+00  -4.2003777374441462e+00  -4.1758488268882505e+00  -4.1626991474489099e+00  -4.1373904838599751e+00  -4.1202275815099716e+00  -4.0983642241649676e+00  -4.0813547492671427e+00  -4.0594305379572315e+00  -4.0386896673339985e+00  -4.0189417624580797e+00  -3.9985993961258224e+00  -3.9775526530043908e+00  -3.9557536515602791e+00  -3.9339531768013694e+00  -3.9116887096838182e+00  -3.8883916855363356e+00  -3.8646164056149335e+00  -3.8407434202607904e+00  -4.4758433067454684e+00  -4.5215422973924380e+00  -3.8150543902434433e+00  -3.7885120297380519e+00  -3.7645865658816531e+00  -3.7372617137404669e+00  -3.7139967892963619e+00  -3.6873987982242671e+00  -3.6624403081562171e+00  -3.6353259662870521e+00  -3.6105265914410927e+00  -3.5825521330786176e+00  -4.3402614861719107e+00  -3.5586272842317572e+00  -3.5295928250230957e+00  -3.5067780956157062e+00  -3.4769339372148034e+00  -3.4552510009208928e+00  -3.4246881945496050e+00  -4.5062664144894207e+00  -4.5531835163033714e+00  -4.4843873117967128e+00  -3.4037090559882612e+00  -3.3723957121600803e+00  -4.5438772110336014e+00  -3.3519714802342224e+00  -3.3203241637165317e+00  -3.3005246041583987e+00  -3.2685555560391406e+00  -3.2489866282422089e+00  -3.2166263041397603e+00  -4.2277542388435085e+00  -3.1979033515008513e+00  -3.1648809894705403e+00  -3.1459066859125957e+00  -3.1130003719431762e+00  -3.0940762892158085e+00  -3.0610817999534667e+00  -4.4029419119872308e+00  -4.1029167952583139e+00  -3.0421640826706242e+00  -3.0092365761036421e+00  -4.5350117749379644e+00  -4.5873204301016983e+00  -4.4898318162118924e+00  -3.9755226599745073e+00  -2.9906985158580599e+00  -2.9562530152192479e+00  -2.9384884851618103e+00  -2.9033918908291225e+00  -2.8860800777195030e+00  -2.8519067906151987e+00  -3.3935159363614016e+00  -2.9737087387108834e+00  -3.2367518215558158e+00  -3.5534204963891889e+00  -2.8338616645411756e+00  -2.8003618952035008e+00  -2.8186653957233467e+00  -2.7678574783958818e+00  -2.7486737427596553e+00  -2.7172473734250460e+00  -2.6968584837768557e+00  -2.6653280377724919e+00  -2.6447242859897413e+00  -2.6125878354320098e+00  -2.5923800991175963e+00  -2.5602277918342158e+00  -2.5397793516917071e+00  -2.5077877386803831e+00  -2.4871865899362411e+00  -2.4551099443304332e+00  -2.4339799491776000e+00  -2.4020422503318297e+00  -2.3806253770081534e+00  -2.3486189152464672e+00  -2.3269530128201668e+00  -2.2951657634263056e+00  -2.2732378495334316e+00  -2.2412949560541162e+00  -3.7099013934639666e+00  -3.8367614132656844e+00  -2.2190487812963560e+00  -2.1873942549663994e+00  -2.1644764064434794e+00  -2.1327870860399210e+00  -4.2302044236619176e+00  -2.1090516363573637e+00  -2.0779331634615135e+00  -3.9552713405692206e+00  -4.0770986976486698e+00  -4.5605983078179451e+00  -4.6048356532297428e+00  -4.6405199735299023e+00  -4.6566204136488407e+00  -4.6922477639779503e+00  -4.7037021394733216e+00  -4.7401362618572511e+00  -4.7453069543146436e+00  -4.7845825520793124e+00  -4.7811068789098226e+00  -4.8222002902450791e+00  -4.8097393664609962e+00  -4.8524901322623277e+00  -4.8344057294812695e+00  -4.8802931856290188e+00  -4.8555168046613328e+00  -4.8886148809761147e+00  -4.8626256306605651e+00  -4.8938950107928427e+00  -4.8727566485275240e+00  -4.8952558289386321e+00  -4.8746636984080780e+00  -4.8926338473207425e+00  -4.8735120997725652e+00  -4.8876241044764193e+00  -4.8704128982020141e+00  -4.8814767822797567e+00  -4.8661308585371810e+00  -4.8541047750626563e+00  -4.8547987508004544e+00  -4.8520469291999921e+00  -4.8611083654509990e+00  -4.8486127657090821e+00  -4.8556356366639060e+00  -4.8446035521051716e+00  -4.8501559240213181e+00  -4.8402968692073438e+00  -4.8376418359677622e+00  -4.8460201054613066e+00  -4.8358866497520010e+00  -4.8390895642982112e+00  -4.8310204281500626e+00  -4.8273289424677506e+00  -4.8234102560221368e+00  -4.8262181194304938e+00  -4.8193884847674857e+00  -4.8212187998268234e+00  -4.8151981557722694e+00  -4.7277958822969905e+00  -4.8163429001071369e+00  -4.8109495401411149e+00  -4.8091999745616176e+00  -4.8054689612644701e+00  -4.8067689549952819e+00  -4.8016473402938766e+00  -4.8025724503082854e+00  -4.7977611887985612e+00  -4.8975182223134359e+00  -4.8241162483590116e+00  -4.8293666130869752e+00  -4.9187440401590292e+00  -4.7984510650340155e+00  -4.7938164758797326e+00  -4.7930983597626549e+00  -4.7893378238017457e+00  -4.7898015875326285e+00  -4.7855255723485142e+00  -4.7857229102390040e+00  -4.7816242078217552e+00  -4.7813815394192707e+00  -4.7776464146354050e+00  -4.7776217414638378e+00  -4.7737958612603153e+00  -4.8196253322051854e+00  -4.7735715551086679e+00  -4.7699180754910193e+00  -4.9148756293227800e+00  -4.7412169002928337e+00  -4.8036298228319492e+00  -4.8982646376202137e+00  -4.7695684549139337e+00  -4.7659018457005846e+00  -4.7664971943238701e+00  -4.7622971257484252e+00  -4.7619457968719390e+00  -4.7582374239809724e+00  -4.7585990955915189e+00  -4.7545815582387316e+00  -4.7541559809697116e+00  -4.7505438781858160e+00  -4.8607638268805218e+00  -4.7500696269467193e+00  -4.7464197863127522e+00  -4.7772198687781735e+00  -4.8264719801296510e+00  -3.6880688671536004e+00  -4.8470814098570347e+00  -4.7469202736337444e+00  -4.7427998450831623e+00  -4.7422702540071731e+00  -4.7386685193156692e+00  -2.0539552045651921e+00  -2.0231867871283438e+00  -1.9991730523854119e+00  -1.9677139267843917e+00  -1.9435492165562656e+00  -1.9119170514845207e+00  -4.7379490789547090e+00  -4.7344103261935029e+00  -3.4340359959872488e+00  -4.7350239962023153e+00  -4.7308042696512889e+00  -4.7302986988621871e+00  -4.7266025084625563e+00  -4.4926963180699317e+00  -4.6365970078876941e+00  -4.8075744972016254e+00  -2.5282519972101207e+00  -1.8875218805549552e+00  -1.8562968785188954e+00  -2.7872807858230262e+00  -2.2649092979887842e+00  -1.8805892468485153e+00  -1.8254722019599299e+00  -1.8005787853070452e+00  -1.7698787203592765e+00  -1.7446376603308840e+00  -1.7138498008578427e+00  -1.6884395965689798e+00  -1.6583684225887960e+00  -1.6320577283986391e+00  -1.6019707191722701e+00  -1.5753103892201397e+00  -1.5444713151507776e+00  -1.5181751016215808e+00  -1.4871712268128860e+00  -1.4606914127874171e+00  -1.4296314621189856e+00  -1.403611065404708