<?xml version="1.0"?>
<VTKFile type="UnstructuredGrid"  version="0.1"  >
<UnstructuredGrid>
<Piece  NumberOfPoints="2945" NumberOfCells="5525">
<Points>
<DataArray  type="Float64"  NumberOfComponents="3"  format="ascii">0 0.1 0  0.95 0.1 0  1 0.1 0  1 0 0  1.5 0 0  3 0 0  3 0.3 0  0 0.3 0  0.0197424558707114 0.1 0  0.03915669042224804 0.1 0  0.05824816022699029 0.1 0  0.07702223050332387 0.1 0  0.09548417327144595 0.1 0  0.1136391897583987 0.1 0  0.1314923700144587 0.1 0  0.1490487330862866 0.1 0  0.1663132263225292 0.1 0  0.1832906857273058 0.1 0  0.1999858946008978 0.1 0  0.216403545770297 0.1 0  0.2325482404045023 0.1 0  0.2484245348165176 0.1 0  0.2640368740372501 0.1 0  0.2793896589642241 0.1 0  0.2944872056237027 0.1 0  0.3093337469555254 0.1 0  0.3239334613687816 0.1 0  0.3382904528528069 0.1 0  0.3524087553122972 0.1 0  0.3662923366391824 0.1 0  0.3799451014768399 0.1 0  0.393370886920506 0.1 0  0.4065734648871676 0.1 0  0.419556546320114 0.1 0  0.4323237821343415 0.1 0  0.4448787573056132 0.1 0  0.4572250047274954 0.1 0  0.4693659926332938 0.1 0  0.4813051343276231 0.1 0  0.4930457849308193 0.1 0  0.5045912455271677 0.1 0  0.5159447600209797 0.1 0  0.5271095174127136 0.1 0  0.5380886618453393 0.1 0  0.5488852725463512 0.1 0  0.5595023868312478 0.1 0  0.5699429904313016 0.1 0  0.5802100167387366 0.1 0  0.5903063508274641 0.1 0  0.6002348329443006 0.1 0  0.6099982499579832 0.1 0  0.6195993483501782 0.1 0  0.6290408246013842 0.1 0  0.6383253354321616 0.1 0  0.6474554910757137 0.1 0  0.6564338522440513 0.1 0  0.6652629482939147 0.1 0  0.6739452579188948 0.1 0  0.6824832240165607 0.1 0  0.6908792415022103 0.1 0  0.6991356755989045 0.1 0  0.7072548438546967 0.1 0  0.7152390281534421 0.1 0  0.7230904746196039 0.1 0  0.7308113906759266 0.1 0  0.7384039435269326 0.1 0  0.7458702676581656 0.1 0  0.7532124631720397 0.1 0  0.7604325921167397 0.1 0  0.7675326856666862 0.1 0  0.7745147374421916 0.1 0  0.7813807123989068 0.1 0  0.7881325374362798 0.1 0  0.7947721131625659 0.1 0  0.8013013031866276 0.1 0  0.8077219449067021 0.1 0  0.8140358419942376 0.1 0  0.8202447685401882 0.1 0  0.8263504700910924 0.1 0  0.8323546643163114 0.1 0  0.8382590362474568 0.1 0  0.8440652473522128 0.1 0  0.8497749272799842 0.1 0  0.8553896837646281 0.1 0  0.8609110933285474 0.1 0  0.866340708855119 0.1 0  0.8716800550492284 0.1 0  0.8769306339052932 0.1 0  0.8820939206038667 0.1 0  0.8871713655604893 0.1 0  0.8921643975475726 0.1 0  0.8970744196575535 0.1 0  0.9019028106970642 0.1 0  0.9066509291259979 0.1 0  0.9113201098984042 0.1 0  0.9159116634553873 0.1 0  0.9204268818729691 0.1 0  0.9248670319440222 0.1 0  0.9292333656649013 0.1 0  0.9335271075812669 0.1 0  0.9377494640511216 0.1 0  0.941901623463222 0.1 0  0.9459847526686701 0.1 0  0.9538461538461205 0.1 0  0.9576923076922409 0.1 0  0.9615384615384381 0.1 0  0.9653846153846337 0.1 0  0.9692307692307542 0.1 0  0.9730769230768747 0.1 0  0.9769230769229952 0.1 0  0.9807692307691157 0.1 0  0.9846153846152361 0.1 0  0.9884615384614317 0.1 0  0.9923076923076356 0.1 0  0.9961538461538395 0.1 0  1 0.09591793123533533 0  1 0.09133596463859224 0  1 0.08619288104391448 0  1 0.08041996484521211 0  1 0.07394008421771697 0  1 0.06666666567302955 0  1 0.05850252932209174 0  1 0.04933859630113544 0  1 0.03905242821848202 0  1 0.02750659386753798 0  1 0.01454683679239736 0  1.015625 0 0  1.03125 0 0  1.046875 0 0  1.0625 0 0  1.078125 0 0  1.09375 0 0  1.109375 0 0  1.125 0 0  1.140625 0 0  1.15625 0 0  1.171875 0 0  1.1875 0 0  1.203125 0 0  1.21875 0 0  1.234375 0 0  1.25 0 0  1.265625 0 0  1.28125 0 0  1.296875 0 0  1.3125 0 0  1.328125 0 0  1.34375 0 0  1.359375 0 0  1.375 0 0  1.390625 0 0  1.40625 0 0  1.421875 0 0  1.4375 0 0  1.453125 0 0  1.46875 0 0  1.484375 0 0  1.515920751924515 0 0  1.531989369316721 0 0  1.54820720925872 0 0  1.564575665560501 0 0  1.581096138674279 0 0  1.597770029901263 0 0  1.614598783332311 0 0  1.631583831055205 0 0  1.64872661129721 0 0  1.666028606716533 0 0  1.683491276608443 0 0  1.701116134125304 0 0  1.718904673324128 0 0  1.736858414799339 0 0  1.754978895814663 0 0  1.773267661782904 0 0  1.791726281103402 0 0  1.810356325314689 0 0  1.8291593848892 0 0  1.848137076690385 0 0  1.867291007717254 0 0  1.886622833871288 0 0  1.90613418642363 0 0  1.925826753299799 0 0  1.945702199101513 0 0  1.96576223584749 0 0  1.986008569283268 0 0  2.006442931928877 0 0  2.02706707547783 0 0  2.047882750887917 0 0  2.06889175187935 0 0  2.090095860038271 0 0  2.111496891648636 0 0  2.133096679109554 0 0  2.154897066851056 0 0  2.176899916687499 0 0  2.199107102752146 0 0  2.22152053937028 0 0  2.244142122958061 0 0  2.266973806444078 0 0  2.290017523268154 0 0  2.313275249499252 0 0  2.336748971745516 0 0  2.360440702338606 0 0  2.384352453384031 0 0  2.408486280477412 0 0  2.432844240041185 0 0  2.457428414757088 0 0  2.482240901796653 0 0  2.507283830121838 0 0  2.532559332080812 0 0  2.558069568787417 0 0  2.583816724966441 0 0  2.60980299606584 0 0  2.636030600971886 0 0  2.662501790984011 0 0  2.689218818279327 0 0  2.716183964547616 0 0  2.743399548861297 0 0  2.77086788244719 0 0  2.798591312896326 0 0  2.826572223178268 0 0  2.854812990138617 0 0  2.883316031690714 0 0  2.912083780657189 0 0  2.941118704633482 0 0  2.970423276998917 0 0  3 0.02999999999994495 0  3 0.05999999999987042 0  3 0.089999999999783 0  3 0.119999999999701 0  3 0.149999999999619 0  3 0.179999999999692 0  3 0.2099999999997737 0  3 0.2399999999998511 0  3 0.2699999999999185 0  2.970138294777171 0.3 0  2.940375666438236 0.3 0  2.910711782853056 0.3 0  2.881146331305122 0.3 0  2.851678975030285 0.3 0  2.822309388626621 0.3 0  2.793037250095074 0.3 0  2.76386223529133 0.3 0  2.734784017903872 0.3 0  2.705802289276642 0.3 0  2.676916713794697 0.3 0  2.648126987654635 0.3 0  2.619432780406184 0.3 0  2.590833779385199 0.3 0  2.562329669847737 0.3 0  2.533920134950189 0.3 0  2.505604855727852 0.3 0  2.477383539822502 0.3 0  2.449255847639465 0.3 0  2.421221492569094 0.3 0  2.393280152486815 0.3 0  2.36543151914496 0.3 0  2.337675285481809 0.3 0  2.310011142385583 0.3 0  2.282438797441587 0.3 0  2.254957931061538 0.3 0  2.227568248063605 0.3 0  2.200269436651085 0.3 0  2.173061204949961 0.3 0  2.145943251515011 0.3 0  2.118915272469994 0.3 0  2.091976978084957 0.3 0  2.065128060700849 0.3 0  2.038368218849433 0.3 0  2.01169717777258 0.3 0  1.985114624111908 0.3 0  1.958620267850966 0.3 0  1.93221382054972 0.3 0  1.905894991850698 0.3 0  1.879663489459713 0.3 0  1.853519019126419 0.3 0  1.827461291053897 0.3 0  1.801490031354372 0.3 0  1.775604937580312 0.3 0  1.74980572560258 0.3 0  1.724092118631866 0.3 0  1.698463829173586 0.3 0  1.672920575782554 0.3 0  1.647462076974085 0.3 0  1.622088043536933 0.3 0  1.5967981978949 0.3 0  1.571592267767068 0.3 0  1.546469970305736 0.3 0  1.521431023814044 0.3 0  1.496475156230927 0.3 0  1.471602093687753 0.3 0  1.446811560490646 0.3 0  1.422103279101731 0.3 0  1.397476971708191 0.3 0  1.37293238939876 0.3 0  1.348469231419202 0.3 0  1.324087248732772 0.3 0  1.299786165921677 0.3 0  1.275565710847046 0.3 0  1.251425617644257 0.3 0  1.227365618676339 0.3 0  1.203385446174014 0.3 0  1.179484853067473 0.3 0  1.155663548773374 0.3 0  1.131921292279077 0.3 0  1.108257802159295 0.3 0  1.084672829009693 0.3 0  1.061166115303374 0.3 0  1.037737392995421 0.3 0  1.01438640299116 0.3 0  0.991112899770314 0.3 0  0.9679166155523955 0.3 0  0.944797284182564 0.3 0  0.921754678526042 0.3 0  0.8987885143602501 0.3 0  0.8758985548820624 0.3 0  0.8530845484099929 0.3 0  0.8303462351786988 0.3 0  0.8076833651172373 0.3 0  0.7850956864865304 0.3 0  0.7625829601354557 0.3 0  0.7401449314598274 0.3 0  0.717781337993959 0.3 0  0.6954919649675473 0.3 0  0.6732765357561226 0.3 0  0.6511348120768439 0.3 0  0.6290665642016573 0.3 0  0.6070715355430467 0.3 0  0.5851494825775325 0.3 0  0.5633001690203812 0.3 0  0.5415233562273221 0.3 0  0.5198187909431873 0.3 0  0.4981862401387795 0.3 0  0.4766254686134248 0.3 0  0.4551362360485234 0.3 0  0.4337182975262159 0.3 0  0.4123714223228037 0.3 0  0.3910953802377493 0.3 0  0.3698899313205595 0.3 0  0.3487548463710963 0.3 0  0.3276898864081783 0.3 0  0.3066948129116018 0.3 0  0.2857694003037476 0.3 0  0.2649134227095047 0.3 0  0.2441266417321288 0.3 0  0.2234088223399122 0.3 0  0.2027597568977288 0.3 0  0.1821792020676698 0.3 0  0.1616669305402443 0.3 0  0.1412227158799362 0.3 0  0.12084633013886 0.3 0  0.1005375673448281 0.3 0  0.08029618164595353 0.3 0  0.06012194778526769 0.3 0  0.04001466495039718 0.3 0  0.01997408913631205 0.3 0  0 0.2800000000000553 0  0 0.2600000000001105 0  0 0.2400000000001658 0  0 0.2200000000002211 0  0 0.2000000000002764 0  0 0.1800000000002244 0  0 0.1600000000001691 0  0 0.140000000000115 0  0 0.1200000000000564 0  1.133778471000506 0.01219539743990768 0  1.003741919047894 0.09354664821474232 0  0.9559421147150347 0.1035858189992458 0  0.9313792160389045 0.1037365237938103 0  0.9788461538460573 0.1033060829993555 0  0.9090102438250753 0.1037269304984056 0  0.8846304212778655 0.1043349840723655 0  0.8581503885465881 0.104741932962923 0  0.8286416220145676 0.1052762843984476 0  0.7982741772533339 0.1053575624517407 0  0.7708789559342691 0.1060290465840416 0  0.741870349714261 0.1078220590984258 0  0.7112469360040695 0.10685702926368 0  0.6783901541417233 0.1079959711853378 0  0.642884733623195 0.1075561996086514 0  0.6056235042367955 0.1085956039602543 0  0.5647007593786924 0.1083187281660325 0  1.1953125 0.01353164693413185 0  1.258148737344733 0.01268350115427042 0  1.320087046516829 0.01426312402966312 0  1.383495130751951 0.01432665475473204 0  1.4453125 0.01315663539200989 0  1.50886768312388 0.01395488397722681 0  0.9942307692307371 0.103330866937657 0  1.119309781943483 0.2802014914557878 0  1.572831235329714 0.01707210522554785 0  1.637611634353954 0.01209340368483431 0  1.709661292005932 0.0146870244871893 0  1.006561890631532 0.07068055446055937 0  1.784793444007901 0.01499371444634687 0  1.855459587353174 0.0
[...]
<PointData  Scalars="pressure"> 
<DataArray  type="Float64"  Name="pressure"  format="ascii">-2.7284483828252586e-02  -3.7287294254168513e-01  -2.8560788806560927e-01  -2.4925379691923744e-01  -5.8580392396590908e-02  0.0000000000000000e+00  0.0000000000000000e+00  -2.7262216883426831e-02  -3.3207197630171804e-02  -3.9031676442266829e-02  -4.4759620628487241e-02  -5.0392666310428838e-02  -5.5932464902391829e-02  -6.1380561780450912e-02  -6.6738549362700114e-02  -7.2007991728590529e-02  -7.7190351689684439e-02  -8.2287254315507430e-02  -8.7300157071886389e-02  -9.2230487122594670e-02  -9.7079786005481783e-02  -1.0184945546312901e-01  -1.0654100560836932e-01  -1.1115581518374903e-01  -1.1569540534778025e-01  -1.2016109173596926e-01  -1.2455440005790058e-01  -1.2887662456474613e-01  -1.3312938543298081e-01  -1.3731393097016917e-01  -1.4143141202138243e-01  -1.4548379060898048e-01  -1.4947215617326678e-01  -1.5339806957972696e-01  -1.5726274258613401e-01  -1.6106783054519722e-01  -1.6481467595404473e-01  -1.6850477557764718e-01  -1.7213954574511867e-01  -1.7572010079427855e-01  -1.7924872501722233e-01  -1.8272644908080415e-01  -1.8615472187029825e-01  -1.8953512694848618e-01  -1.9286943008107413e-01  -1.9615891578573072e-01  -1.9940535429878628e-01  -2.0261021951020547e-01  -2.0577541184854836e-01  -2.0890238247642215e-01  -2.1199284715640396e-01  -2.1504838114745631e-01  -2.1807093644601847e-01  -2.2106200390828751e-01  -2.2402374273672596e-01  -2.2695757077344741e-01  -2.2986545975988934e-01  -2.3274950221126114e-01  -2.3561141432961297e-01  -2.3845257476608170e-01  -2.4127669949631092e-01  -2.4408281456762571e-01  -2.4687507415314072e-01  -2.4965512592375336e-01  -2.5242436716156613e-01  -2.5518687645692911e-01  -2.5794308081260825e-01  -2.6069294185906439e-01  -2.6344214550764178e-01  -2.6619236977103178e-01  -2.6894638161936318e-01  -2.7170471924888639e-01  -2.7446759079239030e-01  -2.7724327502134727e-01  -2.8003072846261040e-01  -2.8283349504754779e-01  -2.8565421942352598e-01  -2.8849536640085033e-01  -2.9135960212631934e-01  -2.9425121534660520e-01  -2.9717194104824651e-01  -3.0012459627461641e-01  -3.0311527598874743e-01  -3.0614756716848113e-01  -3.0922320849160351e-01  -3.1234879657165537e-01  -3.1553046329796980e-01  -3.1877089082465820e-01  -3.2207483878937893e-01  -3.2545844468354518e-01  -3.2892072027833458e-01  -3.3247398386790827e-01  -3.3612459028922065e-01  -3.3990057970519683e-01  -3.4379256476499820e-01  -3.4776023827259839e-01  -3.5272112753060247e-01  -3.5263513065846480e-01  -3.7921816745826514e-01  -3.4250847119781008e-01  -3.7527955375302580e-01  -3.7487640818089335e-01  -3.8440984202734563e-01  -3.9575316655490861e-01  -4.2024400934371819e-01  -4.2729317804725975e-01  -4.2618769167850568e-01  -4.1738524675314825e-01  -4.0326427775299423e-01  -3.8530000091607752e-01  -3.6517068032115790e-01  -3.4399653242825778e-01  -3.2284716795484908e-01  -3.0400792262199910e-01  -2.7792051086556768e-01  -2.8280397169918037e-01  -2.6302195007399315e-01  -2.5671581547832434e-01  -2.5246309809012951e-01  -2.5005114657295191e-01  -2.4856842918655375e-01  -2.4764866316411061e-01  -2.4723151184907624e-01  -2.4732454514444385e-01  -2.4793747160091312e-01  -2.4890513696443420e-01  -2.4969561326738546e-01  -2.5088379749602668e-01  -2.5217540054326282e-01  -2.5371048715268985e-01  -2.5555524311731387e-01  -2.5756444760063485e-01  -2.5941966227037827e-01  -2.6084806446681569e-01  -2.6143670155323245e-01  -2.6072531534987425e-01  -2.5829530327747580e-01  -2.5382075117183750e-01  -2.4704623411127136e-01  -2.3787653382616128e-01  -2.2641276623615400e-01  -2.1298322191446029e-01  -1.9801906999701233e-01  -1.8198058836432116e-01  -1.6544814499808330e-01  -1.4916748094750149e-01  -1.3325171541391206e-01  -1.1859804426650149e-01  -1.0521752405269821e-01  -9.3458382254283837e-02  -8.3337789313703392e-02  -7.5159712952961352e-02  -6.8638737356630730e-02  -6.3822614135254252e-02  -6.0550768729142779e-02  -5.8699666120370336e-02  -5.8106500187864112e-02  -5.9976907983740710e-02  -6.2080208600659999e-02  -6.4684139935251753e-02  -6.7493297014389650e-02  -7.0341526409031074e-02  -7.2760356993356173e-02  -7.4598050749693501e-02  -7.5361464279848356e-02  -7.4910876712124264e-02  -7.3048586588873893e-02  -6.9680996839299000e-02  -6.4837379532146647e-02  -5.8648404781305064e-02  -5.1401511997235631e-02  -4.3436542803692607e-02  -3.5164803823312163e-02  -2.6999961798452987e-02  -1.9436482709130124e-02  -1.2583090152374549e-02  -6.9364806589846039e-03  -2.5051730844522150e-03  6.3543484448191619e-04  2.4732024180690597e-03  3.1276236592029287e-03  2.6896372106655279e-03  1.3219600700075376e-03  -8.3487499987385449e-04  -3.7464574391977722e-03  -7.2710402101158183e-03  -1.1332576278509527e-02  -1.5837605710849096e-02  -2.0531080466886256e-02  -2.5092804381158136e-02  -2.9084746424446830e-02  -3.2036524789063762e-02  -3.3431948820640843e-02  -3.2886738591935138e-02  -3.0218734089235113e-02  -2.5475700621872696e-02  -1.9028199800107483e-02  -1.1455162291635112e-02  -3.4891139159734723e-03  4.1302401277086920e-03  1.0727096677744404e-02  1.5825428184028965e-02  1.9138833716904138e-02  2.0621430754699643e-02  2.0387738602482910e-02  1.8679272256797157e-02  1.5734890591215477e-02  1.1789411256629575e-02  7.2386302946698148e-03  2.0484563009743164e-03  -3.2861046494789335e-03  -8.5441933400384109e-03  -1.3434964810911585e-02  -1.7166464082461481e-02  -1.9457422603622390e-02  -1.9868395786719673e-02  -1.8307539817629705e-02  -1.4923992920374142e-02  -1.0201172334546855e-02  -5.0400306116846995e-03  -2.8859387257396856e-04  3.0855984769677376e-03  4.6080959630110272e-03  3.7045624224798187e-03  0.0000000000000000e+00  0.0000000000000000e+00  0.0000000000000000e+00  0.0000000000000000e+00  0.0000000000000000e+00  0.0000000000000000e+00  0.0000000000000000e+00  0.0000000000000000e+00  0.0000000000000000e+00  -5.4746547063556255e-04  1.3499880237573193e-03  4.7585132782977961e-03  8.9271056259675515e-03  1.3373881776591259e-02  1.7646110612254972e-02  2.1427239828624958e-02  2.4377167148114907e-02  2.6081660925105096e-02  2.6104729049574761e-02  2.4050657167156535e-02  1.9716442837009542e-02  1.3198128976730580e-02  4.9717519320321311e-03  -4.0664780654142453e-03  -1.2758745188752696e-02  -1.9875386743188197e-02  -2.4354814488990770e-02  -2.5610545528823879e-02  -2.3622324607397861e-02  -1.8912624556896351e-02  -1.2364304879027344e-02  -4.9432768738363981e-03  2.4821851671040481e-03  9.3305428880068510e-03  1.5130338668621389e-02  1.9482280352647711e-02  2.2048911720087255e-02  2.2307550709684317e-02  1.9844030764826461e-02  1.4273194850357900e-02  5.6050726622501471e-03  -6.0185950011797523e-03  -1.9369658307483131e-02  -3.3340164430982075e-02  -4.6755794602977727e-02  -5.7617938562034038e-02  -6.5197391654421039e-02  -6.8899881042212896e-02  -6.9045979096269722e-02  -6.6696856843259669e-02  -6.2498360413908799e-02  -5.8001545401025326e-02  -5.4003503548683447e-02  -5.1159362057518906e-02  -4.9834405715862354e-02  -5.0200627478693513e-02  -5.2340000189630496e-02  -5.6219922851181423e-02  -6.1856869215159142e-02  -6.9258394012958371e-02  -7.8256885575700166e-02  -8.8846913974701389e-02  -1.0041329830038642e-01  -1.1268481776045228e-01  -1.2511139196017448e-01  -1.3719564718220620e-01  -1.4846738855091837e-01  -1.5862634042009480e-01  -1.6751017818925043e-01  -1.7516279733996515e-01  -1.8167522604271347e-01  -1.8731324376198963e-01  -1.9240302712191623e-01  -1.9718463453069920e-01  -2.0195079601949448e-01  -2.0688685107630878e-01  -2.1214273206968728e-01  -2.1778298927056522e-01  -2.2380298057772474e-01  -2.3004171686186078e-01  -2.3648434852415198e-01  -2.4289296333701130e-01  -2.4902110527521354e-01  -2.5443469201891195e-01  -2.5921178921158466e-01  -2.6281691312122057e-01  -2.6536813453233171e-01  -2.6689410820742315e-01  -2.6687340540895060e-01  -2.6578933610810196e-01  -2.6367240402470637e-01  -2.6077368034203652e-01  -2.5713831632482953e-01  -2.5287117578481677e-01  -2.4810221960888035e-01  -2.4298360246031311e-01  -2.3756296821692574e-01  -2.3187713838656998e-01  -2.2602791034919023e-01  -2.2002557741155801e-01  -2.1392197316701628e-01  -2.0773688383818142e-01  -2.0148733341338484e-01  -1.9519172894650089e-01  -1.8886950535092403e-01  -1.8252559489747158e-01  -1.7616897244119720e-01  -1.6980737065744120e-01  -1.6344761586517267e-01  -1.5709305393820469e-01  -1.5074445584198504e-01  -1.4440710003271814e-01  -1.3808193689428658e-01  -1.3177125572219361e-01  -1.2547563454755586e-01  -1.1919613104770330e-01  -1.1293459853232796e-01  -1.0669010610425449e-01  -1.0046460482029251e-01  -9.4257475687433506e-02  -8.8069373940767817e-02  -8.1900697910574444e-02  -7.5751216694006265e-02  -6.9621318821968772e-02  -6.3511008789059908e-02  -5.7420339502343903e-02  -5.1349342407928183e-02  -4.5298019493575793e-02  -3.9266381742520735e-02  -3.3254444203200027e-02  -2.7262277684541852e-02  -2.7263188186470246e-02  -2.7265470768168588e-02  -2.7269021336697657e-02  -2.7273345484223437e-02  -2.7277662719102289e-02  -2.7281226351690713e-02  -2.7283491495253314e-02  -2.7284405768110209e-02  -2.6041661234869967e-01  -2.6547943123220002e-01  -4.1373311999246593e-01  -3.6212822429081853e-01  -3.6754082295232260e-01  -3.4221670383964414e-01  -3.2401400409329884e-01  -3.0786306263147722e-01  -2.9259823560870485e-01  -2.7883396438778696e-01  -2.6758940042056795e-01  -2.5653483923108117e-01  -2.4552460790477185e-01  -2.3427610520451705e-01  -2.2256537702463675e-01  -2.1062619826940782e-01  -1.9778675205515664e-01  -2.5038779377052856e-01  -2.0597513180587601e-01  -1.4245390575561287e-01  -8.8747849818013341e-02  -6.2493777439652370e-02  -5.9268778827148288e-02  -2.8832388554305233e-01  -2.2617469007149549e-01  -6.8669746768286771e-02  -7.5265440021379373e-02  -6.2602383562895908e-02  -2.4974079838583310e-01  -3.0892712068609125e-02  -5.6025080580397813e-03  -1.8455567067806539e-01  3.0912012167711015e-03  -2.0343971444137759e-01  -1.8390709281388631e-01  -5.7199782819669642e-03  -1.5351512556320415e-01  -1.7011577951479367e-01  -9.6188833363527626e-02  -2.2050800583875301e-02  -1.5599793652624128e-01  -2.5567166104660738e-01  -3.3494485112447361e-02  -5.3829049824551244e-02  -2.4495780998641803e-01  -1.3983583956539747e-01  -1.6102617219719683e-02  -5.9521816889158544e-02  -1.2206253951490316e-01  -6.9537599065752423e-02  1.3119393081193814e-02  -5.2998193472104077e-02  -2.6338475118932647e-01  1.9686997523933381e-02  -1.0419601776486363e-01  -1.3216109775633603e-02  -2.6611051846858125e-01  -2.5853009156172363e-01  1.7254268768179475e-02  5.3109901297964729e-03  -8.4296545335196607e-02  -6.9491132136562689e-02  -4.9839710114963250e-02  -1.0687239891270723e-02  -2.0183928636162630e-02  -2.4051591842288339e-01  2.1161926905270054e-02  -9.9185042595803063e-04  -2.2278442239896698e-01  -3.7966174446199152e-01  -4.1694767463231436e-01  -2.0477309741103969e-01  -2.1423668202130139e-02  -1.3603663801125140e-02  -1.8020865362057226e-01  -1.7615059860194401e-02  -1.4774871750791210e-01  8.4702260805232538e-03  -1.1606434382062869e-01  2.5393021548089031e-02  -9.7462209312709089e-02  -6.0596109158560452e-02  -7.8680500918755017e-02  2.3517837088585028e-02  -3.2317294641486354e-02  -5.3710389231727881e-04  -5.2973027228210436e-02  -2.4792516721904245e-01  1.2133950905406922e-02  1.2972282683458855e-03  -2.5403833644690443e-01  -2.5200557770992821e-01  -2.5572026654973790e-01  -2.1414405323183378e-01  -2.5058254462913276e-01  -1.9198214008402620e-01  -1.6692984770372757e-01  -1.3418785534202746e-01  -7.3635570856222160e-02  -1.3105166049808917e-01  -1.7042619944821930e-01  -1.9397051086102834e-01  -9.4655726041033394e-02  -1.1334537490676128e-01  1.2880775729324825e-02  -2.5960194424523780e-02  -1.3053934456372310e-01  1.4487401418034935e-02  -4.8420287853014839e-02  2.0148742186712656e-02  -2.5738107334271330e-04  -1.4778622014316417e-01  -2.8605945759847644e-02  -3.2344562417515210e-02  -3.0272231961147669e-02  -1.6284487938701228e-01  -1.2484692646366931e-02  3.0909168457790744e-04  -6.3183532112612892e-02  1.2819640659797293e-03  -1.7762563139072526e-01  -1.6624170645851779e-02  -4.8306518466600404e-02  -7.2021524088883765e-02  -1.9132483471965678e-01  -7.3643006361806734e-02  2.8170074498688009e-03  -2.0420476267183005e-01  -2.1661907115171405e-01  -2.2868815755729796e-01  -2.3957798323333115e-01  -2.5127504617161817e-01  -2.6214942350094239e-01  -2.7344894784363533e-01  -2.8718458945065561e-01  -2.5891482112139425e-01  -3.0176868859364764e-01  -3.1745904166828082e-01  -3.3462076704648663e-01  -2.3259924265196164e-01  -3.5478587519948718e-01  -1.1323281961356002e-01  -1.7315259405836397e-01  -7.3431563703583086e-02  -5.8515122844272599e-02  -3.1927596014159877e-02  -3.2554391980522890e-01  -1.8748195796340656e-03  -4.1934346625281720e-02  3.2438220262881500e-03  -2.4983209055828071e-01  3.5934710933920432e-03  -3.1785797413053929e-02  -2.5078210538769047e-01  -2.5058748440739748e-01  -2.5166050614307639e-01  -2.5047183778411652e-01  -2.5158137923401652e-01  -2.5048751825303511e-01  -2.5176846349853438e-01  -2.5045291837581629e-01  -2.5191763615529555e-01  -2.5011345697239323e-01  -2.5192659995014971e-01  -2.4930084307490488e-01  -2.5178728522101035e-01  -2.4850255432498444e-01  -2.5184846777724834e-01  -2.4851081543412917e-01  -2.5274644093193177e-01  -2.4970159349586055e-01  -2.5454895007579309e-01  -2.5197923019542545e-01  -2.5625149322780783e-01  -2.4795345505313707e-01  -2.6034789651191492e-01  -2.6071569222452795e-01  -2.5040648163629026e-01  -2.4798292312309117e-01  -2.6573830765711337e-01  -2.6428164785524988e-01  -2.6965503608100289e-01  -2.6586481003932749e-01  -2.7144678709986780e-01  -2.6472130449827108e-01  -2.6946022336588971e-01  -2.6050112516930429e-01  -2.6347145552623458e-01  -2.5082131235588123e-01  -2.5232821291276591e-01  -2.3934614888007597e-01  -2.3755052734378618e-01  -2.2497915852271308e-01  -2.1991574219073204e-01  -2.0705839000262871e-01  -2.0024614626199280e-01  -1.9093431870592151e-01  -1.8052239692719041e-01  -1.7400804396493227e-01  -1.6129221352125306e-01  -1.5875560685761839e-01  -1.4361020381322193e-01  -1.4448364834201174e-01  -1.2862278832193919e-01  -2.5001720648387971e-01  -2.4984758993734657e-01  -1.3177845261867502e-01  -1.1311658770554281e-01  -1.2066146444865032e-01  -1.0331423118436556e-01  -1.1201824935034650e-01  -9.4997984635785487e-02  -1.0458228516382528e-01  -8.8298880407307809e-02  -9.8371552505015905e-02  -8.3349471606283115e-02  -2.5794281418888371e-01  -9.3167651664084430e-02  -7.9823950563437288e-02  -8.8789687343858642e-02  -7.7474187181823986e-02  -8.5148617093703194e-02  -7.6046537015562438e-02  -2.5057693792111702e-01  -2.5250023413701439e-01  -2.4621886378044175e-01  -8.1809090450167612e-02  -7.5203484643751414e-02  -2.4784073865586248e-01  -7.8612115130838892e-02  -7.4656589579179172e-02  -7.5772707526016017e-02  -7.4170507732873814e-02  -7.2894474798975956e-02  -7.3359869858674182e-02  -2.5569231622094829e-01  -6.9823337986556960e-02  -7.2025176205397404e-02  -6.6703742599845142e-02  -7.0007065387802089e-02  -6.3458294226031747e-02  -6.7286186151423122e-02  -2.5527476279473132e-01  -2.2681445455319185e-01  -6.0128243897691738e-02  -6.3858038757188956e-02  -2.5175189816122368e-01  -2.5596492117135117e-01  -2.4924677376661603e-01  -1.8446004607783684e-01  -5.6489138204334016e-02  -6.0076087293192353e-02  -5.3650279172920930e-02  -5.6247825387373246e-02  -5.1615056951180481e-02  -5.2919705473033353e-02  -6.9755702705260228e-02  -6.7262241086130409e-02  -7.4460706700440804e-02  -7.1257005384135153e-02  -5.0673861113404370e-02  -5.0430682536638551e-02  -5.1824493245218789e-02  -4.7337046390439425e-02  -4.9012809054226066e-02  -4.3774576922401429e-02  -4.8590193995162602e-02  -4.1136333013094939e-02  -4.9079139649679471e-02  -3.9616671225819647e-02  -5.0076462673964331e-02  -3.8688337277082582e-02  -5.0849418721553720e-02  -3.7977937832256607e-02  -5.1257293419886017e-02  -3.7015287870517215e-02  -4.9983981051641084e-02  -3.4754698519686086e-02  -4.7169278663249381e-02  -3.2231123020786651e-02  -4.2621107051358319e-02  -2.8960364130418779e-02  -3.6990561424221996e-02  -2.5146013552259629e-02  -8.8873159300084603e-02  -1.4799786028615905e-01  -2.9925317810122622e-02  -2.1270163078767262e-02  -2.2384713670847860e-02  -1.7453898383999394e-02  -2.7393737187130907e-01  -1.5225572350027859e-02  -1.4464570355866894e-02  -1.6831232147269828e-01  -2.3169385650932781e-01  -2.5319818931421945e-01  -2.5787282761399144e-01  -2.6211101741270204e-01  -2.6512563481034584e-01  -2.7022054952365143e-01  -2.7337634604618055e-01  -2.7990257444846317e-01  -2.8225822713192278e-01  -2.9097015676455568e-01  -2.9110744953189915e-01  -3.0189768714555587e-01  -2.9904820469390625e-01  -3.1166700751750009e-01  -3.0618165845482004e-01  -3.2109772341549575e-01  -3.1258887043963995e-01  -3.2387684717034437e-01  -3.1409317669604486e-01  -3.2523905721708735e-01  -3.1668624507895049e-01  -3.2484291893271688e-01  -3.1612224725291271e-01  -3.2270647030461569e-01  -3.1426645514241386e-01  -3.1945461841342043e-01  -3.1155407757400549e-01  -3.1556501818690003e-01  -3.0820344367290747e-01  -3.0829685428497317e-01  -3.0384004295060818e-01  -3.0095903816517616e-01  -3.0444871565190224e-01  -2.9776478557566444e-01  -3.0045617310854600e-01  -2.9429547467327050e-01  -2.9647926073030739e-01  -2.9068753225851174e-01  -2.9148732574950653e-01  -2.9312356395914091e-01  -2.8701120831776478e-01  -2.8807889904602613e-01  -2.8298689638596708e-01  -2.8155661722128944e-01  -2.7793601392469847e-01  -2.7896318276405468e-01  -2.7425345453268596e-01  -2.7477905191631635e-01  -2.7046309368754684e-01  -2.7453682401363039e-01  -2.7062768122964387e-01  -2.6659080565603954e-01  -2.6599791470112227e-01  -2.6236179985753222e-01  -2.6273725895045685e-01  -2.5866808255042195e-01  -2.5885884784043284e-01  -2.5493609650776672e-01  -3.2559634242580088e-01  -3.0210331794371659e-01  -3.0122138219250083e-01  -3.3422945440536533e-01  -2.5495256936819521e-01  -2.5113857744104079e-01  -2.5101942588909354e-01  -2.4728784240404739e-01  -2.4728360330995980e-01  -2.4352330096757349e-01  -2.4336089699954100e-01  -2.3968661038269229e-01  -2.3979759087456617e-01  -2.3603871733046830e-01  -2.3574833354417488e-01  -2.3219512464018696e-01  -2.7640326079201166e-01  -2.3176740930287759e-01  -2.2833813337555428e-01  -3.3169551665745201e-01  -2.8106617856778504e-01  -2.6169621241745317e-01  -3.2299846464585213e-01  -2.2783273212858851e-01  -2.2435398621337072e-01  -2.2509581465782783e-01  -2.2089802250648835e-01  -2.2042816928490289e-01  -2.1684230631066695e-01  -2.1731309164111368e-01  -2.1327757061285654e-01  -2.1277141945050576e-01  -2.0923312246731221e-01  -3.0228343384433565e-01  -2.0869959479510961e-01  -2.0510969065573073e-01  -2.3593644478283754e-01  -2.7834585856909849e-01  -1.2213720169679866e-01  -2.9281395287453577e-01  -2.0566187903889721e-01  -2.0153166700880720e-01  -2.0096524960650944e-01  -1.9739720863223445e-01  -8.8496083908419041e-03  -1.2002465065268666e-02  -3.5695860995136842e-03  -1.0286017197602802e-02  4.6915426730952749e-04  -8.9246362967493748e-03  -1.9665206469129407e-01  -1.9314013631398028e-01  -9.0618456721088494e-02  -1.9377437436322034e-01  -1.8955115977043277e-01  -1.8903214712757374e-01  -1.8534949612573579e-01  -2.4945803548071571e-01  -2.6147255199389374e-01  -2.6278964545661398e-01  -2.4538180761781068e-02  3.3499585734609290e-03  -7.7702950178487416e-03  -4.8021009246580926e-02  -1.7859767653732379e-02  -1.9484681403051578e-02  -1.9021588636882126e-02  -6.5037726937003625e-03  -1.7546518897962896e-02  -5.2808748744424625e-03  -1.5057939493719055e-02  -3.9824115171236884e-03  -1.1785435137470478e-02  -3.0781718889415534e-03  -8.3763509161326709e-03  -2.7898373820753595e-03  -5.3159412207322088e-03  -3.5223791686523568e-03  -3.3095234278387028e-03  -5.4163893104620378e-03  -2.4710847462543297e-03  -8.0691382598535189e-03  -2.7256126225163224e-03  -1.0890865844040231e-02  -3.58