<?xml version="1.0"?>
<VTKFile type="UnstructuredGrid"  version="0.1"  >
<UnstructuredGrid>
<Piece  NumberOfPoints="2945" NumberOfCells="5525">
<Points>
<DataArray  type="Float64"  NumberOfComponents="3"  format="ascii">0 0.1 0  0.95 0.1 0  1 0.1 0  1 0 0  1.5 0 0  3 0 0  3 0.3 0  0 0.3 0  0.0197424558707114 0.1 0  0.03915669042224804 0.1 0  0.05824816022699029 0.1 0  0.07702223050332387 0.1 0  0.09548417327144595 0.1 0  0.1136391897583987 0.1 0  0.1314923700144587 0.1 0  0.1490487330862866 0.1 0  0.1663132263225292 0.1 0  0.1832906857273058 0.1 0  0.1999858946008978 0.1 0  0.216403545770297 0.1 0  0.2325482404045023 0.1 0  0.2484245348165176 0.1 0  0.2640368740372501 0.1 0  0.2793896589642241 0.1 0  0.2944872056237027 0.1 0  0.3093337469555254 0.1 0  0.3239334613687816 0.1 0  0.3382904528528069 0.1 0  0.3524087553122972 0.1 0  0.3662923366391824 0.1 0  0.3799451014768399 0.1 0  0.393370886920506 0.1 0  0.4065734648871676 0.1 0  0.419556546320114 0.1 0  0.4323237821343415 0.1 0  0.4448787573056132 0.1 0  0.4572250047274954 0.1 0  0.4693659926332938 0.1 0  0.4813051343276231 0.1 0  0.4930457849308193 0.1 0  0.5045912455271677 0.1 0  0.5159447600209797 0.1 0  0.5271095174127136 0.1 0  0.5380886618453393 0.1 0  0.5488852725463512 0.1 0  0.5595023868312478 0.1 0  0.5699429904313016 0.1 0  0.5802100167387366 0.1 0  0.5903063508274641 0.1 0  0.6002348329443006 0.1 0  0.6099982499579832 0.1 0  0.6195993483501782 0.1 0  0.6290408246013842 0.1 0  0.6383253354321616 0.1 0  0.6474554910757137 0.1 0  0.6564338522440513 0.1 0  0.6652629482939147 0.1 0  0.6739452579188948 0.1 0  0.6824832240165607 0.1 0  0.6908792415022103 0.1 0  0.6991356755989045 0.1 0  0.7072548438546967 0.1 0  0.7152390281534421 0.1 0  0.7230904746196039 0.1 0  0.7308113906759266 0.1 0  0.7384039435269326 0.1 0  0.7458702676581656 0.1 0  0.7532124631720397 0.1 0  0.7604325921167397 0.1 0  0.7675326856666862 0.1 0  0.7745147374421916 0.1 0  0.7813807123989068 0.1 0  0.7881325374362798 0.1 0  0.7947721131625659 0.1 0  0.8013013031866276 0.1 0  0.8077219449067021 0.1 0  0.8140358419942376 0.1 0  0.8202447685401882 0.1 0  0.8263504700910924 0.1 0  0.8323546643163114 0.1 0  0.8382590362474568 0.1 0  0.8440652473522128 0.1 0  0.8497749272799842 0.1 0  0.8553896837646281 0.1 0  0.8609110933285474 0.1 0  0.866340708855119 0.1 0  0.8716800550492284 0.1 0  0.8769306339052932 0.1 0  0.8820939206038667 0.1 0  0.8871713655604893 0.1 0  0.8921643975475726 0.1 0  0.8970744196575535 0.1 0  0.9019028106970642 0.1 0  0.9066509291259979 0.1 0  0.9113201098984042 0.1 0  0.9159116634553873 0.1 0  0.9204268818729691 0.1 0  0.9248670319440222 0.1 0  0.9292333656649013 0.1 0  0.9335271075812669 0.1 0  0.9377494640511216 0.1 0  0.941901623463222 0.1 0  0.9459847526686701 0.1 0  0.9538461538461205 0.1 0  0.9576923076922409 0.1 0  0.9615384615384381 0.1 0  0.9653846153846337 0.1 0  0.9692307692307542 0.1 0  0.9730769230768747 0.1 0  0.9769230769229952 0.1 0  0.9807692307691157 0.1 0  0.9846153846152361 0.1 0  0.9884615384614317 0.1 0  0.9923076923076356 0.1 0  0.9961538461538395 0.1 0  1 0.09591793123533533 0  1 0.09133596463859224 0  1 0.08619288104391448 0  1 0.08041996484521211 0  1 0.07394008421771697 0  1 0.06666666567302955 0  1 0.05850252932209174 0  1 0.04933859630113544 0  1 0.03905242821848202 0  1 0.02750659386753798 0  1 0.01454683679239736 0  1.015625 0 0  1.03125 0 0  1.046875 0 0  1.0625 0 0  1.078125 0 0  1.09375 0 0  1.109375 0 0  1.125 0 0  1.140625 0 0  1.15625 0 0  1.171875 0 0  1.1875 0 0  1.203125 0 0  1.21875 0 0  1.234375 0 0  1.25 0 0  1.265625 0 0  1.28125 0 0  1.296875 0 0  1.3125 0 0  1.328125 0 0  1.34375 0 0  1.359375 0 0  1.375 0 0  1.390625 0 0  1.40625 0 0  1.421875 0 0  1.4375 0 0  1.453125 0 0  1.46875 0 0  1.484375 0 0  1.515920751924515 0 0  1.531989369316721 0 0  1.54820720925872 0 0  1.564575665560501 0 0  1.581096138674279 0 0  1.597770029901263 0 0  1.614598783332311 0 0  1.631583831055205 0 0  1.64872661129721 0 0  1.666028606716533 0 0  1.683491276608443 0 0  1.701116134125304 0 0  1.718904673324128 0 0  1.736858414799339 0 0  1.754978895814663 0 0  1.773267661782904 0 0  1.791726281103402 0 0  1.810356325314689 0 0  1.8291593848892 0 0  1.848137076690385 0 0  1.867291007717254 0 0  1.886622833871288 0 0  1.90613418642363 0 0  1.925826753299799 0 0  1.945702199101513 0 0  1.96576223584749 0 0  1.986008569283268 0 0  2.006442931928877 0 0  2.02706707547783 0 0  2.047882750887917 0 0  2.06889175187935 0 0  2.090095860038271 0 0  2.111496891648636 0 0  2.133096679109554 0 0  2.154897066851056 0 0  2.176899916687499 0 0  2.199107102752146 0 0  2.22152053937028 0 0  2.244142122958061 0 0  2.266973806444078 0 0  2.290017523268154 0 0  2.313275249499252 0 0  2.336748971745516 0 0  2.360440702338606 0 0  2.384352453384031 0 0  2.408486280477412 0 0  2.432844240041185 0 0  2.457428414757088 0 0  2.482240901796653 0 0  2.507283830121838 0 0  2.532559332080812 0 0  2.558069568787417 0 0  2.583816724966441 0 0  2.60980299606584 0 0  2.636030600971886 0 0  2.662501790984011 0 0  2.689218818279327 0 0  2.716183964547616 0 0  2.743399548861297 0 0  2.77086788244719 0 0  2.798591312896326 0 0  2.826572223178268 0 0  2.854812990138617 0 0  2.883316031690714 0 0  2.912083780657189 0 0  2.941118704633482 0 0  2.970423276998917 0 0  3 0.02999999999994495 0  3 0.05999999999987042 0  3 0.089999999999783 0  3 0.119999999999701 0  3 0.149999999999619 0  3 0.179999999999692 0  3 0.2099999999997737 0  3 0.2399999999998511 0  3 0.2699999999999185 0  2.970138294777171 0.3 0  2.940375666438236 0.3 0  2.910711782853056 0.3 0  2.881146331305122 0.3 0  2.851678975030285 0.3 0  2.822309388626621 0.3 0  2.793037250095074 0.3 0  2.76386223529133 0.3 0  2.734784017903872 0.3 0  2.705802289276642 0.3 0  2.676916713794697 0.3 0  2.648126987654635 0.3 0  2.619432780406184 0.3 0  2.590833779385199 0.3 0  2.562329669847737 0.3 0  2.533920134950189 0.3 0  2.505604855727852 0.3 0  2.477383539822502 0.3 0  2.449255847639465 0.3 0  2.421221492569094 0.3 0  2.393280152486815 0.3 0  2.36543151914496 0.3 0  2.337675285481809 0.3 0  2.310011142385583 0.3 0  2.282438797441587 0.3 0  2.254957931061538 0.3 0  2.227568248063605 0.3 0  2.200269436651085 0.3 0  2.173061204949961 0.3 0  2.145943251515011 0.3 0  2.118915272469994 0.3 0  2.091976978084957 0.3 0  2.065128060700849 0.3 0  2.038368218849433 0.3 0  2.01169717777258 0.3 0  1.985114624111908 0.3 0  1.958620267850966 0.3 0  1.93221382054972 0.3 0  1.905894991850698 0.3 0  1.879663489459713 0.3 0  1.853519019126419 0.3 0  1.827461291053897 0.3 0  1.801490031354372 0.3 0  1.775604937580312 0.3 0  1.74980572560258 0.3 0  1.724092118631866 0.3 0  1.698463829173586 0.3 0  1.672920575782554 0.3 0  1.647462076974085 0.3 0  1.622088043536933 0.3 0  1.5967981978949 0.3 0  1.571592267767068 0.3 0  1.546469970305736 0.3 0  1.521431023814044 0.3 0  1.496475156230927 0.3 0  1.471602093687753 0.3 0  1.446811560490646 0.3 0  1.422103279101731 0.3 0  1.397476971708191 0.3 0  1.37293238939876 0.3 0  1.348469231419202 0.3 0  1.324087248732772 0.3 0  1.299786165921677 0.3 0  1.275565710847046 0.3 0  1.251425617644257 0.3 0  1.227365618676339 0.3 0  1.203385446174014 0.3 0  1.179484853067473 0.3 0  1.155663548773374 0.3 0  1.131921292279077 0.3 0  1.108257802159295 0.3 0  1.084672829009693 0.3 0  1.061166115303374 0.3 0  1.037737392995421 0.3 0  1.01438640299116 0.3 0  0.991112899770314 0.3 0  0.9679166155523955 0.3 0  0.944797284182564 0.3 0  0.921754678526042 0.3 0  0.8987885143602501 0.3 0  0.8758985548820624 0.3 0  0.8530845484099929 0.3 0  0.8303462351786988 0.3 0  0.8076833651172373 0.3 0  0.7850956864865304 0.3 0  0.7625829601354557 0.3 0  0.7401449314598274 0.3 0  0.717781337993959 0.3 0  0.6954919649675473 0.3 0  0.6732765357561226 0.3 0  0.6511348120768439 0.3 0  0.6290665642016573 0.3 0  0.6070715355430467 0.3 0  0.5851494825775325 0.3 0  0.5633001690203812 0.3 0  0.5415233562273221 0.3 0  0.5198187909431873 0.3 0  0.4981862401387795 0.3 0  0.4766254686134248 0.3 0  0.4551362360485234 0.3 0  0.4337182975262159 0.3 0  0.4123714223228037 0.3 0  0.3910953802377493 0.3 0  0.3698899313205595 0.3 0  0.3487548463710963 0.3 0  0.3276898864081783 0.3 0  0.3066948129116018 0.3 0  0.2857694003037476 0.3 0  0.2649134227095047 0.3 0  0.2441266417321288 0.3 0  0.2234088223399122 0.3 0  0.2027597568977288 0.3 0  0.1821792020676698 0.3 0  0.1616669305402443 0.3 0  0.1412227158799362 0.3 0  0.12084633013886 0.3 0  0.1005375673448281 0.3 0  0.08029618164595353 0.3 0  0.06012194778526769 0.3 0  0.04001466495039718 0.3 0  0.01997408913631205 0.3 0  0 0.2800000000000553 0  0 0.2600000000001105 0  0 0.2400000000001658 0  0 0.2200000000002211 0  0 0.2000000000002764 0  0 0.1800000000002244 0  0 0.1600000000001691 0  0 0.140000000000115 0  0 0.1200000000000564 0  1.133778471000506 0.01219539743990768 0  1.003741919047894 0.09354664821474232 0  0.9559421147150347 0.1035858189992458 0  0.9313792160389045 0.1037365237938103 0  0.9788461538460573 0.1033060829993555 0  0.9090102438250753 0.1037269304984056 0  0.8846304212778655 0.1043349840723655 0  0.8581503885465881 0.104741932962923 0  0.8286416220145676 0.1052762843984476 0  0.7982741772533339 0.1053575624517407 0  0.7708789559342691 0.1060290465840416 0  0.741870349714261 0.1078220590984258 0  0.7112469360040695 0.10685702926368 0  0.6783901541417233 0.1079959711853378 0  0.642884733623195 0.1075561996086514 0  0.6056235042367955 0.1085956039602543 0  0.5647007593786924 0.1083187281660325 0  1.1953125 0.01353164693413185 0  1.258148737344733 0.01268350115427042 0  1.320087046516829 0.01426312402966312 0  1.383495130751951 0.01432665475473204 0  1.4453125 0.01315663539200989 0  1.50886768312388 0.01395488397722681 0  0.9942307692307371 0.103330866937657 0  1.119309781943483 0.2802014914557878 0  1.572831235329714 0.01707210522554785 0  1.637611634353954 0.01209340368483431 0  1.709661292005932 0.0146870244871893 0  1.006561890631532 0.07068055446055937 0  1.784793444007901 0.01499371444634687 0  1.855459587353174 0.0
[...]
<PointData  Scalars="pressure"> 
<DataArray  type="Float64"  Name="pressure"  format="ascii">1.3575419504526842e-02  -3.1067849951243043e-01  -3.5913758986750699e-01  -2.9093084488453613e-01  -1.1257486260696498e-01  0.0000000000000000e+00  0.0000000000000000e+00  1.3599643057670457e-02  7.6527095636476240e-03  1.8282245782991857e-03  -3.8997382003329202e-03  -9.5328133322030335e-03  -1.5072653321449784e-02  -2.0520801007996085e-02  -2.5878853291931885e-02  -3.1148362136128861e-02  -3.6330801091009786e-02  -4.1427788236807546e-02  -4.6440763347919703e-02  -5.1371162148813869e-02  -5.6220509390831820e-02  -6.0990196206016457e-02  -6.5681716839346607e-02  -7.0296433366432848e-02  -7.4835840325650591e-02  -7.9301233600232779e-02  -8.3694097690117403e-02  -8.8015704936576081e-02  -9.2267604140034390e-02  -9.6450992704773447e-02  -1.0056705177699246e-01  -1.0461756539869584e-01  -1.0860361201894825e-01  -1.1252660739158613e-01  -1.1638771672805849e-01  -1.2018861078126496e-01  -1.2393014950394071e-01  -1.2761418349515610e-01  -1.3124146164188455e-01  -1.3481355407538462e-01  -1.3833200585245198e-01  -1.4179793251607470e-01  -1.4521248489461430e-01  -1.4857712697139294e-01  -1.5189331847275908e-01  -1.5516205758149221e-01  -1.5838492180887861e-01  -1.6156298254149537e-01  -1.6469783536408308e-01  -1.6779066768730252e-01  -1.7084268410521827e-01  -1.7385526475940785e-01  -1.7682989764129969e-01  -1.7976759769133155e-01  -1.8267000956672491e-01  -1.8553824197989963e-01  -1.8837361521231816e-01  -1.9117810816864822e-01  -1.9395167543698549e-01  -1.9669749254383762e-01  -1.9941552493304962e-01  -2.0210707207835371e-01  -2.0477416537099022e-01  -2.0741810638529434e-01  -2.1003979367854855e-01  -2.1264233942837635e-01  -2.1522403350854122e-01  -2.1778792138116701e-01  -2.2033623321051332e-01  -2.2286916134475490e-01  -2.2538964649979357e-01  -2.2789655161758532e-01  -2.3039257144506012e-01  -2.3288047093217612e-01  -2.3536035564192032e-01  -2.3783427510385244e-01  -2.4030358378924588e-01  -2.4277006310902843e-01  -2.4523491258662680e-01  -2.4770044130223842e-01  -2.5016726561890101e-01  -2.5263759458185508e-01  -2.5511435032826379e-01  -2.5759872227579483e-01  -2.6009199062964045e-01  -2.6259764284191972e-01  -2.6511724600406256e-01  -2.6765294224476022e-01  -2.7020701724191537e-01  -2.7278581709193406e-01  -2.7538865332277962e-01  -2.7802071379697402e-01  -2.8068368706889935e-01  -2.8339235472597135e-01  -2.8613281127267448e-01  -2.8885769553660773e-01  -2.9238226591116001e-01  -2.9121667818019170e-01  -3.1401123771260514e-01  -2.7979785684857095e-01  -3.0749378621426909e-01  -3.0564985402742584e-01  -3.1042830319348907e-01  -3.1735634907873733e-01  -3.2492351956091642e-01  -3.2970557733518063e-01  -3.3314181539882765e-01  -3.3513520934586205e-01  -3.3593733069915582e-01  -3.3572002609800999e-01  -3.3471820235273453e-01  -3.3310720011463169e-01  -3.3101160337973812e-01  -3.3017742975335773e-01  -3.1892236794903406e-01  -3.3834159403609393e-01  -3.1794532952552734e-01  -3.1026937803186211e-01  -3.0471826998476809e-01  -3.0075934299493096e-01  -2.9748417421490470e-01  -2.9463562126708753e-01  -2.9229285299671537e-01  -2.9061286578551337e-01  -2.8985281167513954e-01  -2.9029517806538396e-01  -2.9173403816593590e-01  -2.9215309195969152e-01  -2.9146730335063831e-01  -2.8972052468180243e-01  -2.8681802227728104e-01  -2.8261197370037494e-01  -2.7688484574980354e-01  -2.6946501664917938e-01  -2.6043864171891140e-01  -2.4995295736378959e-01  -2.3816771211156751e-01  -2.2539058103076653e-01  -2.1199124207818484e-01  -1.9832725282292316e-01  -1.8479266674727393e-01  -1.7174397782031292e-01  -1.5952050215140884e-01  -1.4834672114557126e-01  -1.3841082043093900e-01  -1.3002185160327598e-01  -1.2292801567928689e-01  -1.1741162294413744e-01  -1.1331145458123158e-01  -1.1053480352813133e-01  -1.0896578421486967e-01  -1.0841418279842020e-01  -1.0872197918245262e-01  -1.0955274460620540e-01  -1.1066241285781959e-01  -1.1174379904317382e-01  -1.1248054137044002e-01  -1.1172796720203627e-01  -1.0966262275354331e-01  -1.0618565746828602e-01  -1.0116021591805499e-01  -9.4667641438443667e-02  -8.6864234507290902e-02  -7.7879939672790499e-02  -6.8206978477446875e-02  -5.8103293660971535e-02  -4.8075751368682730e-02  -3.8555194731920726e-02  -2.9915181611516888e-02  -2.2432023663732713e-02  -1.6320199000586257e-02  -1.1659445276654400e-02  -8.4682087073766552e-03  -6.6719778278798826e-03  -6.2225389575533297e-03  -6.8707889003995215e-03  -8.5164115514971689e-03  -1.1033000242705510e-02  -1.4240722784409542e-02  -1.8023608033196654e-02  -2.2264247853772519e-02  -2.6759852930834896e-02  -3.1332321427655151e-02  -3.5570129647251023e-02  -3.9223634110518685e-02  -4.1800533921544619e-02  -4.2852738216058631e-02  -4.2062445784741290e-02  -3.9305065729842319e-02  -3.4666945053935250e-02  -2.8469361882785670e-02  -2.1140765057333401e-02  -1.3383688740639164e-02  -5.8200237124374716e-03  9.0648034293104877e-04  6.3659614349228528e-03  1.0259417862073288e-02  1.2483359191747973e-02  1.3089454561623732e-02  1.2246278826660658e-02  1.0184750949503702e-02  7.1521467742705035e-03  3.3816288501664943e-03  -9.4749502428242017e-04  -5.6309451573285183e-03  -1.0420836679404528e-02  -1.4974028800632288e-02  -1.8970897350615822e-02  -2.1712530570467285e-02  -2.2834687317168020e-02  -2.2025033814046455e-02  -1.9018580890523943e-02  -1.3961846179568548e-02  -7.7921140884099046e-03  -6.2481381299275373e-04  6.2681008192482859e-03  1.2298602520211891e-02  1.6768170914472809e-02  1.9572981624110333e-02  2.0241245151238298e-02  1.9188129789097688e-02  1.6160857682985513e-02  1.1840203502439077e-02  5.9711348252830350e-03  0.0000000000000000e+00  0.0000000000000000e+00  0.0000000000000000e+00  0.0000000000000000e+00  0.0000000000000000e+00  0.0000000000000000e+00  0.0000000000000000e+00  0.0000000000000000e+00  0.0000000000000000e+00  -5.6683411036221867e-03  -1.1114275114918706e-02  -1.4917014323810429e-02  -1.6204145916197232e-02  -1.4876207187552178e-02  -1.1366397355988048e-02  -6.3204228311049401e-03  -4.8670838928147465e-04  5.4615021376591662e-03  1.1012491486569598e-02  1.5799097205775232e-02  1.9504027442391495e-02  2.1777263937882003e-02  2.2238795014496635e-02  2.0507112555593118e-02  1.6336231381721012e-02  9.7760947882059718e-03  1.2248973643837451e-03  -8.5041018392484468e-03  -1.8261033776458668e-02  -2.6772303839053331e-02  -3.2870509862129221e-02  -3.5758165179024727e-02  -3.5240490224859117e-02  -3.1584441356631091e-02  -2.5670489460729282e-02  -1.8479290396096474e-02  -1.0977229974204965e-02  -4.0395976517269725e-03  1.7795455178079081e-03  6.0603993453817112e-03  8.5248110387369184e-03  8.7442567434350103e-03  6.6970743984588067e-03  1.2984681599544291e-03  -6.7289061074872394e-03  -1.7870937769285694e-02  -3.1145783500282055e-02  -4.5610436742512715e-02  -6.0252840017718398e-02  -7.3089626955204393e-02  -8.3344357887070800e-02  -9.0179878692609752e-02  -9.3462590512882596e-02  -9.3702908232689883e-02  -9.1787171970123246e-02  -8.8859605979699455e-02  -8.5939175965128484e-02  -8.3735895563975732e-02  -8.2793699132403378e-02  -8.3369959380835051e-02  -8.5544646883000452e-02  -8.9289988107327953e-02  -9.4437613060213296e-02  -1.0107703459267815e-01  -1.0905583514683014e-01  -1.1823172119606253e-01  -1.2835506726277587e-01  -1.3914391654610025e-01  -1.5023820928013126e-01  -1.6131873660057014e-01  -1.7198706432546051e-01  -1.8209747308633478e-01  -1.9143805361694805e-01  -1.9989149248111976e-01  -2.0742590449743348e-01  -2.1412717331097472e-01  -2.2003753245496413e-01  -2.2521326440387021e-01  -2.2972523579066462e-01  -2.3356256027578209e-01  -2.3677669724593636e-01  -2.3940998491180673e-01  -2.4137187953896475e-01  -2.4253961871145285e-01  -2.4300817143375245e-01  -2.4265965125410816e-01  -2.4143842630865808e-01  -2.3960585822071837e-01  -2.3684228243085223e-01  -2.3343996905607159e-01  -2.2945465507193874e-01  -2.2501312178234720e-01  -2.2017011882389090e-01  -2.1497129788431835e-01  -2.0949500004636054e-01  -2.0381476930248427e-01  -1.9796699632565118e-01  -1.9196450262113909e-01  -1.8586895099136130e-01  -1.7968487016387016e-01  -1.7344208586262486e-01  -1.6715329835859913e-01  -1.6082752539846021e-01  -1.5447632692022900e-01  -1.4811098238411868e-01  -1.4173723884823536e-01  -1.3535847731904402e-01  -1.2898109949599254e-01  -1.2260961360106697e-01  -1.1624676006436531e-01  -1.0989259180406795e-01  -1.0355125503951321e-01  -9.7223497795658004e-02  -9.0910991084328457e-02  -8.4614339401733518e-02  -7.8334175030734768e-02  -7.2072281609908945e-02  -6.5827639553215966e-02  -5.9602105556789485e-02  -5.3395011806359756e-02  -4.7206987490195952e-02  -4.1038409196629280e-02  -3.4889024227750538e-02  -2.8759213891614070e-02  -2.2648980224516984e-02  -1.6558373048328679e-02  -1.0487423948831155e-02  -4.4361347955899225e-03  1.5954832595693083e-03  7.6074134519337330e-03  1.3599578337811360e-02  1.3598593514655175e-02  1.3596113230551382e-02  1.3592247679767170e-02  1.3587536353945414e-02  1.3582832479260811e-02  1.3578952784094149e-02  1.3576491351457540e-02  1.3575502691685414e-02  -2.6436087119991919e-01  -3.2206497793604455e-01  -3.2207379495343275e-01  -2.9773855886664113e-01  -3.3272963309634046e-01  -2.8497379130778161e-01  -2.7165695797743927e-01  -2.5897306271044718e-01  -2.4627964060684779e-01  -2.3428822384366130e-01  -2.2414236748909358e-01  -2.1390235529956400e-01  -2.0348226658916685e-01  -1.9265704579956106e-01  -1.8124072507490130e-01  -1.6949354221420390e-01  -1.5677870880886824e-01  -2.1922862576437915e-01  -1.6593791399870536e-01  -1.2686980229473097e-01  -1.0962576112203691e-01  -1.0984084499380700e-01  -1.1213387632292980e-01  -3.2847437601917084e-01  -2.3093041739665932e-01  -9.8911764934952240e-02  -6.5500196260287039e-02  -2.7077963124643278e-02  -2.9991163072955868e-01  -7.5715515235333921e-03  -9.2727526575605134e-03  -1.4362053628034402e-01  -2.3976868452709240e-02  -2.1026505585811017e-01  -1.7685264795390529e-01  -4.0719305641286965e-02  -1.3344812000779527e-01  -1.2922257954035998e-01  -9.2135819804608651e-02  -3.7916214086403090e-02  -1.1512459756017440e-01  -2.8402804462032477e-01  -1.0193232522146153e-02  -8.3886931238157242e-02  -2.3953782802511325e-01  -9.8972363104563352e-02  1.1506224538285993e-02  -8.7887202618885246e-02  -8.1202694604446901e-02  -5.4970874033687771e-02  9.1490100078082497e-03  -1.1964028949543045e-02  -2.4169345869676118e-01  -8.0754369702439512e-03  -6.3336862271843819e-02  7.8929749449477508e-03  -2.3492734159200956e-01  -2.2202178988758711e-01  4.4244754332247570e-03  -2.2567752653184569e-02  -4.3437171357410494e-02  -2.8631515907022682e-02  -9.2424096524306970e-02  -1.7462743215360104e-02  3.0035339340717588e-03  -2.0113518168152228e-01  -1.4278729738681302e-02  -3.6333597603279894e-02  -1.8251412672417472e-01  -3.0861477123926906e-01  -3.3239209989460577e-01  -1.6414755762105857e-01  -2.3776710105462062e-02  1.8284194706821730e-02  -1.3940932002207423e-01  1.2868979874405505e-02  -1.0689404519279240e-01  2.2442346205175948e-02  -7.5201952377365405e-02  1.4050218072795670e-02  -5.6599591798439895e-02  -1.9734075527163726e-02  -3.7818198484434427e-02  -2.9717121290874816e-03  8.5433866103070237e-03  -3.3166302908280714e-03  -1.2113216883693380e-02  -2.9225433750132801e-01  -1.5941205341313065e-02  1.8188809050147244e-02  -3.0711130512462503e-01  -2.8987443523546952e-01  -2.4207214083387238e-01  -2.2207378733357724e-01  -2.1231886070364148e-01  -1.5124019177211545e-01  -1.2609597504860140e-01  -9.3327743311624647e-02  -8.3912809897070895e-02  -1.1312435460751739e-01  -1.5463932295946117e-01  -1.9532171717394070e-01  -5.3796514667963057e-02  -7.2486063567608797e-02  -2.8505550956906538e-02  -4.5412738883140562e-03  -8.9678344482185840e-02  -1.6491240133779124e-02  -7.5583666227999743e-03  1.4796464447205564e-03  1.3037348832050991e-02  -1.0691902272841931e-01  3.4093180994642829e-03  8.5168903262315861e-03  -2.5758278643436657e-02  -1.2196371359185626e-01  -4.2703946285947675e-02  -3.3494941031269480e-02  -1.0826283521273024e-01  -1.5368704776164964e-02  -1.3671408627665121e-01  -6.4659162850881843e-03  -1.4471158180051298e-02  -4.4746324508858439e-02  -1.5035780203758706e-01  -8.2972752659877122e-02  4.1229482782356225e-03  -1.6314273009876076e-01  -1.7540139663274854e-01  -1.8722528146103321e-01  -1.9777947146488242e-01  -2.0894910213157214e-01  -2.1913405274832806e-01  -2.2946703099047550e-01  -2.4162340269405150e-01  -2.4367775285904705e-01  -2.5398581534963821e-01  -2.6660160314006021e-01  -2.7954587284564181e-01  -1.9217815962512239e-01  -2.9368061942050278e-01  -1.1563046895651229e-01  -1.4299579472339680e-01  -1.0833879227479702e-01  -1.1191935003696007e-01  8.9324691870293488e-03  -3.3003325282794632e-01  -7.5530143777347413e-03  -1.0744669982237914e-03  -1.4439059310435064e-02  -2.9118890114419071e-01  5.7340404584728787e-03  9.0760351425797584e-03  -2.9092666080340673e-01  -2.9049200979388307e-01  -2.8944481189092586e-01  -2.9111716689514178e-01  -2.9018098692898509e-01  -2.9260327191978236e-01  -2.9154021811592062e-01  -2.9452839146414483e-01  -2.9338584073807616e-01  -2.9654301694579077e-01  -2.9510651295389828e-01  -2.9811553508307814e-01  -2.9615755909529240e-01  -2.9873694865855427e-01  -2.9616285600980202e-01  -2.9816236045435246e-01  -2.9451821043835025e-01  -2.9590372976778434e-01  -2.9076910572401876e-01  -2.9067688384508533e-01  -2.8402958365916037e-01  -2.9599727215648813e-01  -2.8384441284548589e-01  -2.7558536069488460e-01  -2.8924266481436484e-01  -2.9491095104444548e-01  -2.7370976877746556e-01  -2.6462055690018810e-01  -2.6269764237252879e-01  -2.5227829422201509e-01  -2.4891946988772642e-01  -2.3878957212339180e-01  -2.3371881288267748e-01  -2.2493353615585193e-01  -2.1757584076791756e-01  -2.1024300072291213e-01  -2.0092436373937508e-01  -1.9439778188118093e-01  -1.8457699564230845e-01  -1.8046568454942757e-01  -1.6939872990529350e-01  -1.6757747163032594e-01  -1.5566796125709365e-01  -1.5572552525992503e-01  -1.4385990837367468e-01  -1.4575842269907546e-01  -1.3399124470316798e-01  -1.3784499204707615e-01  -1.2626620961498072e-01  -1.3118552590184415e-01  -1.2105323724296102e-01  -2.8629267643847750e-01  -2.9113013057991877e-01  -1.2574191315068925e-01  -1.1591392159199854e-01  -1.2148601097170753e-01  -1.1439428556770798e-01  -1.1869421279108071e-01  -1.1329100793753154e-01  -1.1644230444352989e-01  -1.1300526009802915e-01  -1.1444010337134009e-01  -1.1302020232778544e-01  -2.6497017666768286e-01  -1.1246117476544852e-01  -1.1286000560902976e-01  -1.1019806239503407e-01  -1.1205821276147035e-01  -1.0735992634859574e-01  -1.1026849483399087e-01  -2.8201211750511962e-01  -2.8660979810011628e-01  -3.0026266835245641e-01  -1.0389241613532138e-01  -1.0727674068094109e-01  -2.9830538424138958e-01  -9.9958718505554434e-02  -1.0311009982724317e-01  -9.5386662260997651e-02  -9.7930019623935577e-02  -9.0724666933826345e-02  -9.2075558579276115e-02  -2.3155958968067974e-01  -8.6064522353363052e-02  -8.6055572826148438e-02  -8.2333837298751961e-02  -8.0472354754354061e-02  -7.9487495690921894e-02  -7.5646957522326128e-02  -2.9298066286930530e-01  -1.9061103540551297e-01  -7.7723572464748591e-02  -7.2129836945106093e-02  -2.7661907776949851e-01  -2.8258520170518242e-01  -2.7159379702344272e-01  -1.5846257555625334e-01  -7.7762764937384168e-02  -6.9685022881513625e-02  -7.8656401898305195e-02  -6.8369385058849569e-02  -8.0075471622290881e-02  -6.7884961959050374e-02  -1.1319081914756553e-01  -6.2246729828093345e-02  -9.8978829400564503e-02  -1.1308695998893500e-01  -8.1097019362914330e-02  -6.7583227523526218e-02  -5.2320549980203572e-02  -5.0652071160057148e-02  -6.6457384801670905e-02  -4.8983659344267128e-02  -6.4159670419757980e-02  -4.6835455408992921e-02  -6.0654237968711291e-02  -4.4453514224022682e-02  -5.5840391815557652e-02  -4.1277237289213495e-02  -4.9752989645487855e-02  -3.7922134190410080e-02  -4.3101919307007540e-02  -3.4310058107847860e-02  -3.6017190101597936e-02  -3.0937738977500056e-02  -2.9234224941034573e-02  -2.8031772337509361e-02  -2.3167863554261016e-02  -2.5680795528466954e-02  -1.7668794026642239e-02  -2.3500460533862809e-02  -1.0977643132691065e-01  -1.3639239876845896e-01  -1.3194158124714568e-02  -2.1585435190479819e-02  -9.9307235269969173e-03  -1.9393303520049542e-02  -2.4321604743238653e-01  -7.3978322686255611e-03  -1.7353591629064018e-02  -1.3366695635598336e-01  -1.7481008504511564e-01  -2.7027398581307505e-01  -2.7176547959277975e-01  -2.8486150171512697e-01  -2.7775181904472851e-01  -2.8775794096078189e-01  -2.8094549087021492e-01  -2.9010554458120946e-01  -2.8282879089281548e-01  -2.9151750311249036e-01  -2.8403539417034318e-01  -2.9195380244875485e-01  -2.8401332566553922e-01  -2.9141324843276284e-01  -2.8330811803863643e-01  -2.9048804384733190e-01  -2.8243709317896909e-01  -2.8711206531728778e-01  -2.7907803091512828e-01  -2.8416978908515628e-01  -2.7731980305726545e-01  -2.8073383032139787e-01  -2.7419686530199500e-01  -2.7689865335032987e-01  -2.7075828928651391e-01  -2.7284321718056148e-01  -2.6715546097410492e-01  -2.6867081778920632e-01  -2.6331660533607865e-01  -2.7022556820402172e-01  -2.6140497112144934e-01  -2.5789510205543731e-01  -2.5938172997379472e-01  -2.5433772358069845e-01  -2.5544516572571913e-01  -2.5071790405568412e-01  -2.5166342307645412e-01  -2.4709762678823941e-01  -2.4945014527384746e-01  -2.4833591302275970e-01  -2.4348656511123393e-01  -2.4372741819213703e-01  -2.3960812464867767e-01  -2.3908708417523283e-01  -2.3546073439681497e-01  -2.3575024415109513e-01  -2.3181432292495407e-01  -2.3178154268480600e-01  -2.2810955761135657e-01  -2.9611427633404502e-01  -2.2783955972182410e-01  -2.2432974440572120e-01  -2.2427009430511030e-01  -2.2062910238952180e-01  -2.2056411690924654e-01  -2.1695401399274583e-01  -2.1678384349066343e-01  -2.1326094805246879e-01  -2.9768425981738222e-01  -2.7695828996034533e-01  -2.9913435138603856e-01  -2.9077724653248704e-01  -2.1293747017139425e-01  -2.0950582032447579e-01  -2.0970828324398186e-01  -2.0597151971890917e-01  -2.0570670692370149e-01  -2.0221404914669222e-01  -2.0184465895197273e-01  -1.9839718577375309e-01  -1.9872414288278095e-01  -1.9494106989941978e-01  -1.9448069013743544e-01  -1.9109100306136317e-01  -2.3486219434922456e-01  -1.9052807839345337e-01  -1.8723745547151913e-01  -2.8316904824507527e-01  -2.7551242809676435e-01  -2.2052376017777184e-01  -2.7386861534844631e-01  -1.8662483851657333e-01  -1.8326562691224699e-01  -1.8411591216168094e-01  -1.7991360370692036e-01  -1.7935215569285262e-01  -1.7585451182780770e-01  -1.7641553353932912e-01  -1.7236243937240411e-01  -1.7178548644149100e-01  -1.6830818844534651e-01  -2.5610659630000066e-01  -1.6771964119203003e-01  -1.6418090953176978e-01  -1.9504539969331935e-01  -2.3475163669531668e-01  -1.2156952699721987e-01  -2.4748087013884851e-01  -1.6478571143239076e-01  -1.6064373291220255e-01  -1.6003638479680268e-01  -1.5650270921065462e-01  -5.3114107398280026e-03  -1.4940094747754424e-02  -4.3980376232044165e-03  -1.2981885124692347e-02  -4.7063872846824142e-03  -1.1574013835886236e-02  -1.5572614841283777e-01  -1.5224285869619555e-01  -1.0129977710586044e-01  -1.5290620326032511e-01  -1.4867615039916218e-01  -1.4813493421443549e-01  -1.4447098837574909e-01  -2.9523628822417958e-01  -2.6727746243502881e-01  -2.2027184941212963e-01  -2.9044855072462426e-02  -6.3419122724212608e-03  -1.1203023996796848e-02  -3.6200366627504713e-02  -3.0605872140339850e-02  -1.5812773690752579e-02  -1.2843610910102905e-02  -1.2013621994051241e-02  -1.1047854010048024e-02  -1.3977444887607467e-02  -1.0432195855643997e-02  -1.6791212977979451e-02  -1.0935943732093313e-02  -1.9859369658556589e-02  -1.2036963918445474e-02  -2.2681885864513252e-02  -1.3398061846139548e-02  -2.4640936015177615e-02  -1.4302479565766362e-02  -2.5069039846751816e-02  -1.4481332249513814e-02  -2.3650257021154041e-02  -1.3714573546921167e-02  -2.0543532085519865e-02  -1.23219460