<?xml version="1.0"?>
<VTKFile type="UnstructuredGrid"  version="0.1"  >
<UnstructuredGrid>
<Piece  NumberOfPoints="2945" NumberOfCells="5525">
<Points>
<DataArray  type="Float64"  NumberOfComponents="3"  format="ascii">0 0.1 0  0.95 0.1 0  1 0.1 0  1 0 0  1.5 0 0  3 0 0  3 0.3 0  0 0.3 0  0.0197424558707114 0.1 0  0.03915669042224804 0.1 0  0.05824816022699029 0.1 0  0.07702223050332387 0.1 0  0.09548417327144595 0.1 0  0.1136391897583987 0.1 0  0.1314923700144587 0.1 0  0.1490487330862866 0.1 0  0.1663132263225292 0.1 0  0.1832906857273058 0.1 0  0.1999858946008978 0.1 0  0.216403545770297 0.1 0  0.2325482404045023 0.1 0  0.2484245348165176 0.1 0  0.2640368740372501 0.1 0  0.2793896589642241 0.1 0  0.2944872056237027 0.1 0  0.3093337469555254 0.1 0  0.3239334613687816 0.1 0  0.3382904528528069 0.1 0  0.3524087553122972 0.1 0  0.3662923366391824 0.1 0  0.3799451014768399 0.1 0  0.393370886920506 0.1 0  0.4065734648871676 0.1 0  0.419556546320114 0.1 0  0.4323237821343415 0.1 0  0.4448787573056132 0.1 0  0.4572250047274954 0.1 0  0.4693659926332938 0.1 0  0.4813051343276231 0.1 0  0.4930457849308193 0.1 0  0.5045912455271677 0.1 0  0.5159447600209797 0.1 0  0.5271095174127136 0.1 0  0.5380886618453393 0.1 0  0.5488852725463512 0.1 0  0.5595023868312478 0.1 0  0.5699429904313016 0.1 0  0.5802100167387366 0.1 0  0.5903063508274641 0.1 0  0.6002348329443006 0.1 0  0.6099982499579832 0.1 0  0.6195993483501782 0.1 0  0.6290408246013842 0.1 0  0.6383253354321616 0.1 0  0.6474554910757137 0.1 0  0.6564338522440513 0.1 0  0.6652629482939147 0.1 0  0.6739452579188948 0.1 0  0.6824832240165607 0.1 0  0.6908792415022103 0.1 0  0.6991356755989045 0.1 0  0.7072548438546967 0.1 0  0.7152390281534421 0.1 0  0.7230904746196039 0.1 0  0.7308113906759266 0.1 0  0.7384039435269326 0.1 0  0.7458702676581656 0.1 0  0.7532124631720397 0.1 0  0.7604325921167397 0.1 0  0.7675326856666862 0.1 0  0.7745147374421916 0.1 0  0.7813807123989068 0.1 0  0.7881325374362798 0.1 0  0.7947721131625659 0.1 0  0.8013013031866276 0.1 0  0.8077219449067021 0.1 0  0.8140358419942376 0.1 0  0.8202447685401882 0.1 0  0.8263504700910924 0.1 0  0.8323546643163114 0.1 0  0.8382590362474568 0.1 0  0.8440652473522128 0.1 0  0.8497749272799842 0.1 0  0.8553896837646281 0.1 0  0.8609110933285474 0.1 0  0.866340708855119 0.1 0  0.8716800550492284 0.1 0  0.8769306339052932 0.1 0  0.8820939206038667 0.1 0  0.8871713655604893 0.1 0  0.8921643975475726 0.1 0  0.8970744196575535 0.1 0  0.9019028106970642 0.1 0  0.9066509291259979 0.1 0  0.9113201098984042 0.1 0  0.9159116634553873 0.1 0  0.9204268818729691 0.1 0  0.9248670319440222 0.1 0  0.9292333656649013 0.1 0  0.9335271075812669 0.1 0  0.9377494640511216 0.1 0  0.941901623463222 0.1 0  0.9459847526686701 0.1 0  0.9538461538461205 0.1 0  0.9576923076922409 0.1 0  0.9615384615384381 0.1 0  0.9653846153846337 0.1 0  0.9692307692307542 0.1 0  0.9730769230768747 0.1 0  0.9769230769229952 0.1 0  0.9807692307691157 0.1 0  0.9846153846152361 0.1 0  0.9884615384614317 0.1 0  0.9923076923076356 0.1 0  0.9961538461538395 0.1 0  1 0.09591793123533533 0  1 0.09133596463859224 0  1 0.08619288104391448 0  1 0.08041996484521211 0  1 0.07394008421771697 0  1 0.06666666567302955 0  1 0.05850252932209174 0  1 0.04933859630113544 0  1 0.03905242821848202 0  1 0.02750659386753798 0  1 0.01454683679239736 0  1.015625 0 0  1.03125 0 0  1.046875 0 0  1.0625 0 0  1.078125 0 0  1.09375 0 0  1.109375 0 0  1.125 0 0  1.140625 0 0  1.15625 0 0  1.171875 0 0  1.1875 0 0  1.203125 0 0  1.21875 0 0  1.234375 0 0  1.25 0 0  1.265625 0 0  1.28125 0 0  1.296875 0 0  1.3125 0 0  1.328125 0 0  1.34375 0 0  1.359375 0 0  1.375 0 0  1.390625 0 0  1.40625 0 0  1.421875 0 0  1.4375 0 0  1.453125 0 0  1.46875 0 0  1.484375 0 0  1.515920751924515 0 0  1.531989369316721 0 0  1.54820720925872 0 0  1.564575665560501 0 0  1.581096138674279 0 0  1.597770029901263 0 0  1.614598783332311 0 0  1.631583831055205 0 0  1.64872661129721 0 0  1.666028606716533 0 0  1.683491276608443 0 0  1.701116134125304 0 0  1.718904673324128 0 0  1.736858414799339 0 0  1.754978895814663 0 0  1.773267661782904 0 0  1.791726281103402 0 0  1.810356325314689 0 0  1.8291593848892 0 0  1.848137076690385 0 0  1.867291007717254 0 0  1.886622833871288 0 0  1.90613418642363 0 0  1.925826753299799 0 0  1.945702199101513 0 0  1.96576223584749 0 0  1.986008569283268 0 0  2.006442931928877 0 0  2.02706707547783 0 0  2.047882750887917 0 0  2.06889175187935 0 0  2.090095860038271 0 0  2.111496891648636 0 0  2.133096679109554 0 0  2.154897066851056 0 0  2.176899916687499 0 0  2.199107102752146 0 0  2.22152053937028 0 0  2.244142122958061 0 0  2.266973806444078 0 0  2.290017523268154 0 0  2.313275249499252 0 0  2.336748971745516 0 0  2.360440702338606 0 0  2.384352453384031 0 0  2.408486280477412 0 0  2.432844240041185 0 0  2.457428414757088 0 0  2.482240901796653 0 0  2.507283830121838 0 0  2.532559332080812 0 0  2.558069568787417 0 0  2.583816724966441 0 0  2.60980299606584 0 0  2.636030600971886 0 0  2.662501790984011 0 0  2.689218818279327 0 0  2.716183964547616 0 0  2.743399548861297 0 0  2.77086788244719 0 0  2.798591312896326 0 0  2.826572223178268 0 0  2.854812990138617 0 0  2.883316031690714 0 0  2.912083780657189 0 0  2.941118704633482 0 0  2.970423276998917 0 0  3 0.02999999999994495 0  3 0.05999999999987042 0  3 0.089999999999783 0  3 0.119999999999701 0  3 0.149999999999619 0  3 0.179999999999692 0  3 0.2099999999997737 0  3 0.2399999999998511 0  3 0.2699999999999185 0  2.970138294777171 0.3 0  2.940375666438236 0.3 0  2.910711782853056 0.3 0  2.881146331305122 0.3 0  2.851678975030285 0.3 0  2.822309388626621 0.3 0  2.793037250095074 0.3 0  2.76386223529133 0.3 0  2.734784017903872 0.3 0  2.705802289276642 0.3 0  2.676916713794697 0.3 0  2.648126987654635 0.3 0  2.619432780406184 0.3 0  2.590833779385199 0.3 0  2.562329669847737 0.3 0  2.533920134950189 0.3 0  2.505604855727852 0.3 0  2.477383539822502 0.3 0  2.449255847639465 0.3 0  2.421221492569094 0.3 0  2.393280152486815 0.3 0  2.36543151914496 0.3 0  2.337675285481809 0.3 0  2.310011142385583 0.3 0  2.282438797441587 0.3 0  2.254957931061538 0.3 0  2.227568248063605 0.3 0  2.200269436651085 0.3 0  2.173061204949961 0.3 0  2.145943251515011 0.3 0  2.118915272469994 0.3 0  2.091976978084957 0.3 0  2.065128060700849 0.3 0  2.038368218849433 0.3 0  2.01169717777258 0.3 0  1.985114624111908 0.3 0  1.958620267850966 0.3 0  1.93221382054972 0.3 0  1.905894991850698 0.3 0  1.879663489459713 0.3 0  1.853519019126419 0.3 0  1.827461291053897 0.3 0  1.801490031354372 0.3 0  1.775604937580312 0.3 0  1.74980572560258 0.3 0  1.724092118631866 0.3 0  1.698463829173586 0.3 0  1.672920575782554 0.3 0  1.647462076974085 0.3 0  1.622088043536933 0.3 0  1.5967981978949 0.3 0  1.571592267767068 0.3 0  1.546469970305736 0.3 0  1.521431023814044 0.3 0  1.496475156230927 0.3 0  1.471602093687753 0.3 0  1.446811560490646 0.3 0  1.422103279101731 0.3 0  1.397476971708191 0.3 0  1.37293238939876 0.3 0  1.348469231419202 0.3 0  1.324087248732772 0.3 0  1.299786165921677 0.3 0  1.275565710847046 0.3 0  1.251425617644257 0.3 0  1.227365618676339 0.3 0  1.203385446174014 0.3 0  1.179484853067473 0.3 0  1.155663548773374 0.3 0  1.131921292279077 0.3 0  1.108257802159295 0.3 0  1.084672829009693 0.3 0  1.061166115303374 0.3 0  1.037737392995421 0.3 0  1.01438640299116 0.3 0  0.991112899770314 0.3 0  0.9679166155523955 0.3 0  0.944797284182564 0.3 0  0.921754678526042 0.3 0  0.8987885143602501 0.3 0  0.8758985548820624 0.3 0  0.8530845484099929 0.3 0  0.8303462351786988 0.3 0  0.8076833651172373 0.3 0  0.7850956864865304 0.3 0  0.7625829601354557 0.3 0  0.7401449314598274 0.3 0  0.717781337993959 0.3 0  0.6954919649675473 0.3 0  0.6732765357561226 0.3 0  0.6511348120768439 0.3 0  0.6290665642016573 0.3 0  0.6070715355430467 0.3 0  0.5851494825775325 0.3 0  0.5633001690203812 0.3 0  0.5415233562273221 0.3 0  0.5198187909431873 0.3 0  0.4981862401387795 0.3 0  0.4766254686134248 0.3 0  0.4551362360485234 0.3 0  0.4337182975262159 0.3 0  0.4123714223228037 0.3 0  0.3910953802377493 0.3 0  0.3698899313205595 0.3 0  0.3487548463710963 0.3 0  0.3276898864081783 0.3 0  0.3066948129116018 0.3 0  0.2857694003037476 0.3 0  0.2649134227095047 0.3 0  0.2441266417321288 0.3 0  0.2234088223399122 0.3 0  0.2027597568977288 0.3 0  0.1821792020676698 0.3 0  0.1616669305402443 0.3 0  0.1412227158799362 0.3 0  0.12084633013886 0.3 0  0.1005375673448281 0.3 0  0.08029618164595353 0.3 0  0.06012194778526769 0.3 0  0.04001466495039718 0.3 0  0.01997408913631205 0.3 0  0 0.2800000000000553 0  0 0.2600000000001105 0  0 0.2400000000001658 0  0 0.2200000000002211 0  0 0.2000000000002764 0  0 0.1800000000002244 0  0 0.1600000000001691 0  0 0.140000000000115 0  0 0.1200000000000564 0  1.133778471000506 0.01219539743990768 0  1.003741919047894 0.09354664821474232 0  0.9559421147150347 0.1035858189992458 0  0.9313792160389045 0.1037365237938103 0  0.9788461538460573 0.1033060829993555 0  0.9090102438250753 0.1037269304984056 0  0.8846304212778655 0.1043349840723655 0  0.8581503885465881 0.104741932962923 0  0.8286416220145676 0.1052762843984476 0  0.7982741772533339 0.1053575624517407 0  0.7708789559342691 0.1060290465840416 0  0.741870349714261 0.1078220590984258 0  0.7112469360040695 0.10685702926368 0  0.6783901541417233 0.1079959711853378 0  0.642884733623195 0.1075561996086514 0  0.6056235042367955 0.1085956039602543 0  0.5647007593786924 0.1083187281660325 0  1.1953125 0.01353164693413185 0  1.258148737344733 0.01268350115427042 0  1.320087046516829 0.01426312402966312 0  1.383495130751951 0.01432665475473204 0  1.4453125 0.01315663539200989 0  1.50886768312388 0.01395488397722681 0  0.9942307692307371 0.103330866937657 0  1.119309781943483 0.2802014914557878 0  1.572831235329714 0.01707210522554785 0  1.637611634353954 0.01209340368483431 0  1.709661292005932 0.0146870244871893 0  1.006561890631532 0.07068055446055937 0  1.784793444007901 0.01499371444634687 0  1.855459587353174 0.0
[...]
<PointData  Scalars="pressure"> 
<DataArray  type="Float64"  Name="pressure"  format="ascii">3.5583685364120364e-03  -3.5628457286671211e-01  -2.1333535030340708e-01  -1.7384743715350109e-01  -2.8897553076941800e-03  0.0000000000000000e+00  0.0000000000000000e+00  3.5810352263501801e-03  -2.3643463958132557e-03  -8.1888409058724684e-03  -1.3916821039644438e-02  -1.9549929180314649e-02  -2.5089825924585970e-02  -3.0538058768543156e-02  -3.5896225861881056e-02  -4.1165913060951700e-02  -4.6348567099720621e-02  -5.1445846532784952e-02  -5.6459226156053852e-02  -6.1390122232222642e-02  -6.6240113177737286e-02  -7.1010608166014705e-02  -7.5703149971594136e-02  -8.0319131204986405e-02  -8.4860117024656845e-02  -8.9327434484874541e-02  -9.3722666535015819e-02  -9.8047120342208610e-02  -1.0230250473712993e-01  -1.0649009741024582e-01  -1.1061101093249728e-01  -1.1466741386570693e-01  -1.1866037383336876e-01  -1.2259157550812692e-01  -1.2646224850974833e-01  -1.3027410794811267e-01  -1.3402874294418454e-01  -1.3772752231449742e-01  -1.4137219617302033e-01  -1.4496367231026835e-01  -1.4850469484428325e-01  -1.5199623823116717e-01  -1.5543990310507830e-01  -1.5883738227886166e-01  -1.6219063421513977e-01  -1.6550106251580149e-01  -1.6877059499030000e-01  -1.7200087368503059e-01  -1.7519400890165587e-01  -1.7835158100319742e-01  -1.8147552258154609e-01  -1.8456754465950145e-01  -1.8762985182516551e-01  -1.9066409219719604e-01  -1.9367272546023342e-01  -1.9665728656157122e-01  -1.9962002373712470e-01  -2.0256324719902907e-01  -2.0548901976994130e-01  -2.0839862597111231e-01  -2.1129668010766003e-01  -2.1418161190989762e-01  -2.1705840192985704e-01  -2.1992889032950474e-01  -2.2279456881378523e-01  -2.2566026439678238e-01  -2.2852634625809962e-01  -2.3139256288751661e-01  -2.3426570819415563e-01  -2.3714762899352082e-01  -2.4004156482518010e-01  -2.4294796016643450e-01  -2.4586703633949025e-01  -2.4880863535720832e-01  -2.5177137562460739e-01  -2.5475939881030008e-01  -2.5777581722064524e-01  -2.6082361792799569e-01  -2.6390585274765527e-01  -2.6702767781402786e-01  -2.7019102546560930e-01  -2.7339948373675843e-01  -2.7666048389718295e-01  -2.7997814588404285e-01  -2.8335490389756213e-01  -2.8679891326988138e-01  -2.9031735419635157e-01  -2.9391411520980243e-01  -2.9759551529552353e-01  -3.0138144324009958e-01  -3.0527106689410810e-01  -3.0928024086074302e-01  -3.1341831302815754e-01  -3.1771928653418341e-01  -3.2217663867948448e-01  -3.2675350156331878e-01  -3.3243504260771278e-01  -3.3279728848114981e-01  -3.6167188281079549e-01  -3.2282307281071609e-01  -3.5877624399409985e-01  -3.5903514304875367e-01  -3.7075254008137737e-01  -3.8531544434468518e-01  -4.1775191421653018e-01  -4.2468946232996119e-01  -4.2014000649704791e-01  -4.0501714707019343e-01  -3.8306260425665384e-01  -3.5646553305764173e-01  -3.2768839763429020e-01  -2.9816368189582038e-01  -2.6935095168408418e-01  -2.4389712000506630e-01  -2.1150602320400258e-01  -2.1608181284790040e-01  -1.9414755116933083e-01  -1.8691256745911067e-01  -1.8166785537217550e-01  -1.7836839282114703e-01  -1.7610131662428138e-01  -1.7452789395497509e-01  -1.7356109483220350e-01  -1.7313808837846270e-01  -1.7320977977467897e-01  -1.7364256273029444e-01  -1.7409170112712963e-01  -1.7454664578727289e-01  -1.7481536084071420e-01  -1.7509019507462856e-01  -1.7559179712302653e-01  -1.7646502737524031e-01  -1.7776737230162726e-01  -1.7957174919690402e-01  -1.8179001902493944e-01  -1.8423195982033741e-01  -1.8667074526501556e-01  -1.8876818205069307e-01  -1.9008741795308143e-01  -1.9015270614083585e-01  -1.8850182914478489e-01  -1.8480711942864322e-01  -1.7876005613452578e-01  -1.7022584677953528e-01  -1.5931444585662130e-01  -1.4620157441098486e-01  -1.3135807990007989e-01  -1.1551887861076574e-01  -9.9054539859067578e-02  -8.2769284008770996e-02  -6.7018112717971409e-02  -5.2704146088933708e-02  -3.9736374461093002e-02  -2.8618397641611261e-02  -1.9377859392175682e-02  -1.2058829394856915e-02  -6.6072480653365283e-03  -7.4732169669878125e-04  -7.7369828174393129e-05  -7.2768229319630133e-04  -2.5407067655266865e-03  -5.3536390161121605e-03  -8.8769559722159715e-03  -1.3014237301344314e-02  -1.7367138935507835e-02  -2.1838362040089463e-02  -2.6045760937255490e-02  -2.9647515961205816e-02  -3.2316886489347794e-02  -3.3766589879015339e-02  -3.3744092108402977e-02  -3.2123618570596098e-02  -2.8872915494679446e-02  -2.4118681988689019e-02  -1.8087125297348003e-02  -1.1071924397456455e-02  -3.6971936493200232e-03  3.7922259187671710e-03  1.0865187376003295e-02  1.7118274177832564e-02  2.2331796434152330e-02  2.6260426495685992e-02  2.8938244144968799e-02  3.0285974493662153e-02  3.0417442803369870e-02  2.9462914768721638e-02  2.7532344515819467e-02  2.4725803208873451e-02  2.1170694463592210e-02  1.6957575616802452e-02  1.2180248288395040e-02  6.9371517763980300e-03  1.4995248051061774e-03  -3.8006735592253159e-03  -8.4714278511896068e-03  -1.1993641628091580e-02  -1.3850605386899072e-02  -1.3662625814100358e-02  -1.1274419150235753e-02  -6.8183275592111495e-03  -7.2931993281496381e-04  6.3359443417499040e-03  1.3573788621168576e-02  2.0237958522573242e-02  2.5665885129663151e-02  2.9398646707461739e-02  3.1163694344278792e-02  3.1065657140638383e-02  2.9269863453956890e-02  2.5922565408433459e-02  2.1563086544255341e-02  1.6310920474646912e-02  1.0394191548297710e-02  4.4053826281965011e-03  -1.6589695702076317e-03  -7.1378072822432777e-03  -1.1656613536963890e-02  -1.4628388152548761e-02  -1.5880639300022047e-02  -1.5100787310558084e-02  -1.2817703045770361e-02  -9.1888346461471929e-03  -5.2832898763668255e-03  -1.4449649876996562e-03  0.0000000000000000e+00  0.0000000000000000e+00  0.0000000000000000e+00  0.0000000000000000e+00  0.0000000000000000e+00  0.0000000000000000e+00  0.0000000000000000e+00  0.0000000000000000e+00  0.0000000000000000e+00  5.0385785717660730e-03  1.0646224357759812e-02  1.6031472213141672e-02  2.0707254430205557e-02  2.4429669161352367e-02  2.6867209559930248e-02  2.7644966665957987e-02  2.6438767273794978e-02  2.3071140313149024e-02  1.7655477385293328e-02  1.0650064019773947e-02  2.9016056327904882e-03  -4.4783719350934541e-03  -1.0327992970149091e-02  -1.3649470299268688e-02  -1.3887532801332777e-02  -1.1048302457342320e-02  -5.6299869878975520e-03  1.5316134099807484e-03  9.5208133763501901e-03  1.7581774029380829e-02  2.5158725645745859e-02  3.1894802543343731e-02  3.7420775668089969e-02  4.1385674136761176e-02  4.3301407391595374e-02  4.2609214546621581e-02  3.8928042648451636e-02  3.2083012193799859e-02  2.2377109159905217e-02  1.0582837307774869e-02  -2.0497704923761869e-03  -1.4147862425366238e-02  -2.4206208081534966e-02  -3.0512862449790051e-02  -3.3712472493704085e-02  -3.2813544327801064e-02  -2.9314921766999669e-02  -2.4054156755403556e-02  -1.8028029773912296e-02  -1.2584893515923064e-02  -8.0545446877176331e-03  -4.9560544488496394e-03  -3.4979587199921772e-03  -3.8208482649704704e-03  -6.0360774869015347e-03  -1.0263537373840222e-02  -1.6595148223532495e-02  -2.4975526777588710e-02  -3.5194994682185128e-02  -4.6892595233713752e-02  -5.9378718720360997e-02  -7.2230990519620550e-02  -8.4421958319231591e-02  -9.5377006464439779e-02  -1.0466677484310584e-01  -1.1210657724209706e-01  -1.1778040185959951e-01  -1.2199656871477027e-01  -1.2522943714636417e-01  -1.2797461562648771e-01  -1.3069152332665482e-01  -1.3365448718125500e-01  -1.3719503598673186e-01  -1.4142807272950753e-01  -1.4643908578835713e-01  -1.5220578688665365e-01  -1.5867837893564932e-01  -1.6576483574275586e-01  -1.7334227209257499e-01  -1.8115344915782047e-01  -1.8917925588866888e-01  -1.9710299424621150e-01  -2.0470927848105575e-01  -2.1155911766457827e-01  -2.1775275554152462e-01  -2.2270212686410251e-01  -2.2655873386413591e-01  -2.2932538080216455e-01  -2.3039478752396653e-01  -2.3027993124852864e-01  -2.2899505145381188e-01  -2.2681905161291482e-01  -2.2378799695028220e-01  -2.2001423685785459e-01  -2.1564287381160435e-01  -2.1085417582914540e-01  -2.0570015408970635e-01  -2.0022270209989115e-01  -1.9454443728975146e-01  -1.8867587884385995e-01  -1.8268046603346777e-01  -1.7658125454091134e-01  -1.7039894747999318e-01  -1.6415572057266384e-01  -1.5787620168638111e-01  -1.5156494653241182e-01  -1.4523401988427101e-01  -1.3889238110134866e-01  -1.3254870084444928e-01  -1.2620681072926243e-01  -1.1986776930664776e-01  -1.1353806864246116e-01  -1.0721876189519543e-01  -1.0091280431003147e-01  -9.4620712560109954e-02  -8.8343957282926378e-02  -8.2084634688226812e-02  -7.5841764366924594e-02  -6.9617590573661070e-02  -6.3411451261281948e-02  -5.7224107806823327e-02  -5.1056029367262119e-02  -4.4906977546993451e-02  -3.8777408976984291e-02  -3.2667338956026651e-02  -2.6576839950727182e-02  -2.0505958575184662e-02  -1.4454708080837139e-02  -8.4231101667587953e-03  -2.4111901478347034e-03  3.5809719576342745e-03  3.5800386758732998e-03  3.5777114218634807e-03  3.5741003544774641e-03  3.5697071210007885e-03  3.5653209235716188e-03  3.5616964687298536e-03  3.5593870530289933e-03  3.5584496701586955e-03  -1.8012589056298331e-01  -1.9633262697693049e-01  -4.0993142021783741e-01  -3.4379417778445559e-01  -3.3259989963632469e-01  -3.2042503016448726e-01  -2.9980114170384364e-01  -2.8188718647079603e-01  -2.6526271178726346e-01  -2.5051360264232292e-01  -2.3862732731983774e-01  -2.2707226088435459e-01  -2.1567395805419826e-01  -2.0412924151108150e-01  -1.9219467167602350e-01  -1.8009635597156337e-01  -1.6714174519090177e-01  -1.8860976572540514e-01  -1.8178069947481032e-01  -1.4016335051069298e-01  -7.5447231076135421e-02  -2.4766975912284241e-02  -2.0348646847615976e-03  -2.2329467557783267e-01  -1.7677537288107326e-01  -3.7629003624140246e-03  -1.8699565112500614e-02  -3.3041676595727501e-02  -1.7772441385236482e-01  -2.6533384416159260e-02  -1.5304697063956429e-03  -1.5383448604924685e-01  2.4072021258878525e-02  -1.4842152934496711e-01  -1.3112688507892173e-01  2.9882476222651146e-02  -1.1955396549905281e-01  -1.3934330289129909e-01  -8.0352737524625073e-02  1.9750222568392862e-02  -1.2519566821937939e-01  -1.7548695346070756e-01  -6.5268347562960833e-04  -2.0576837945553178e-02  -1.9990182009518059e-01  -1.0901414814759890e-01  -1.4193393529951578e-02  -5.8390935939111833e-03  -9.1229711515286138e-02  -2.0049849464688865e-02  1.9236522595583202e-03  -3.3816400025208596e-02  -2.2369958189989103e-01  2.7810607567772413e-02  -7.3357646013805899e-02  -2.0167628452806785e-02  -2.3003110145849875e-01  -2.2490846579279419e-01  1.5869727033183286e-02  2.8170376806581250e-02  -5.3455308870615149e-02  -3.8648915363978111e-02  -4.6336676722465893e-03  1.3899050086784846e-02  -4.7765935408505726e-03  -2.0849928447689359e-01  4.1009087487210223e-02  3.4962664140678744e-02  -1.9137200666926971e-01  -3.6499445308046674e-01  -4.0714484506679161e-01  -1.7364860904223156e-01  1.4230683263568789e-02  -1.5738616703539366e-02  -1.4925749107721198e-01  -1.2978515004237875e-02  -1.1687591102328808e-01  -8.6019537372216681e-03  -8.5213371049753933e-02  1.3608781145127952e-02  -6.6615727378540074e-02  -2.9752541116889141e-02  -4.7836086080005544e-02  2.7444734740675193e-02  -1.4742769583395840e-03  1.7975295308094706e-03  -2.2130325361785601e-02  -1.7383128389871927e-01  2.3570579174564170e-02  -1.1747123534828149e-02  -1.8352542471939592e-01  -1.7447375912703680e-01  -2.1336767510884241e-01  -1.6164644791211075e-01  -2.1790106650545957e-01  -1.6096798009571611e-01  -1.3602274621257610e-01  -1.0332776011143974e-01  -5.3459755957237683e-02  -1.0837410785007141e-01  -1.2564936066018634e-01  -1.3835716872462911e-01  -6.3815684708378312e-02  -8.2509349492168968e-02  4.2847176863873557e-02  -1.6856002400996465e-03  -9.9710886105512861e-02  3.1432894141097414e-02  -1.7576951216852616e-02  1.6743493879237879e-02  -9.8801572589454541e-03  -1.1697260934710502e-01  -1.0104892226388645e-02  -1.5014075159680825e-03  1.0247563095512960e-02  -1.3205515662287726e-01  2.6747974429865821e-02  2.9762740089508792e-02  -5.3410927268665999e-04  1.2837022276557624e-02  -1.4687649912638440e-01  -1.5448063670474200e-02  -3.3322181836813430e-02  -2.7451086148331413e-02  -1.6063829324930148e-01  -1.0837323926059562e-02  -1.7817909646750212e-03  -1.7361124834412023e-01  -1.8616147943831896e-01  -1.9842481749876495e-01  -2.0955937293570739e-01  -2.2161329243825231e-01  -2.3292348559774836e-01  -2.4480290251756059e-01  -2.5943393472954468e-01  -1.8477365634032830e-01  -2.7521390468529849e-01  -2.9249330488483033e-01  -3.1176069022688169e-01  -1.8889698213111686e-01  -3.3491551870616487e-01  -1.0902655932276999e-01  -1.6431690809873628e-01  -4.9147474580223970e-02  -9.9010472877628757e-03  -1.0846963906379749e-03  -2.7365261747493802e-01  5.1027202595199522e-03  -1.1091523754453457e-02  1.4130540792870253e-02  -1.7406190233896782e-01  -1.8285454583139018e-03  -9.4255703253159938e-04  -1.7427612469143122e-01  -1.7401130831572773e-01  -1.7406945590689504e-01  -1.7373288755343863e-01  -1.7367858417299609e-01  -1.7338709112462478e-01  -1.7316748534242293e-01  -1.7279333685387083e-01  -1.7232343115028148e-01  -1.7167414832863495e-01  -1.7100616842211011e-01  -1.6994893414625953e-01  -1.6924883709715569e-01  -1.6804279189107799e-01  -1.6749425486773450e-01  -1.6668251202367529e-01  -1.6650914057387181e-01  -1.6650307979526938e-01  -1.6706006832753917e-01  -1.6830065419919307e-01  -1.6910579777530027e-01  -1.6848301334336821e-01  -1.6850982730992953e-01  -1.7096105002510273e-01  -1.7114454299752180e-01  -1.7238105900722606e-01  -1.7167078492260693e-01  -1.7405038099770176e-01  -1.7569696599112347e-01  -1.7794173394354784e-01  -1.8101222195045205e-01  -1.8216548683284298e-01  -1.8668542560977253e-01  -1.8606129094446988e-01  -1.9189127688745725e-01  -1.8780383639485004e-01  -1.9514256503904048e-01  -1.8945743266338905e-01  -1.9585244089796497e-01  -1.8746839474562110e-01  -1.9284647463704899e-01  -1.8018750729982649e-01  -1.8528144787684070e-01  -1.7283745481513085e-01  -1.7399306285692934e-01  -1.6112473046903120e-01  -1.5912769981053096e-01  -1.4754832625279421e-01  -1.4191207744228432e-01  -1.3262582118268734e-01  -1.2373496602935442e-01  -1.7555232968540549e-01  -1.7849301453654323e-01  -1.1759930643909376e-01  -1.0437568772202457e-01  -1.0333014712463422e-01  -8.7995641333568270e-02  -9.0874951553520766e-02  -7.4097257983364195e-02  -7.9933799961025176e-02  -6.1719644864615751e-02  -7.0805252996535895e-02  -5.1748104882772664e-02  -1.7343158779217599e-01  -6.3170602271960669e-02  -4.3874988854794225e-02  -5.6755436845683127e-02  -3.7934237462628251e-02  -5.1481007623312723e-02  -3.3591406569101957e-02  -1.8119076426756944e-01  -1.8571499980031347e-01  -1.6922312452331012e-01  -4.6642607245123556e-02  -3.0450104648029337e-02  -1.7616619854430690e-01  -4.1830525463396356e-02  -2.8221720713637974e-02  -3.7890593680817833e-02  -2.6825537940221980e-02  -3.4065718146658569e-02  -2.5977680133371192e-02  -1.8056879600595763e-01  -3.0942295614073710e-02  -2.5606049485759206e-02  -2.7494756822586820e-02  -2.5306819121312645e-02  -2.4598468924050005e-02  -2.5110681607672700e-02  -1.6902915882132422e-01  -1.8095656848726890e-01  -2.1907416330402059e-02  -2.4552365160483515e-02  -1.8755002994788464e-01  -1.9387155419028834e-01  -1.8299868347631371e-01  -1.5948915822293230e-01  -1.8962480181275228e-02  -2.3667222308808869e-02  -1.6263081898177722e-02  -2.2177321897796424e-02  -1.3775691833375927e-02  -2.0137720308118355e-02  -1.8633449154552117e-02  -2.9114362019564567e-02  -1.8830083867992939e-02  -3.3958405593035236e-02  -1.1687337384521540e-02  -1.7707696941523240e-02  -2.6211802457834707e-02  -2.3087775350700734e-02  -1.5367220049225073e-02  -1.9427017648558947e-02  -1.3340643945915345e-02  -1.5573993469745705e-02  -1.1878030677548373e-02  -1.1963685754310147e-02  -1.1294264185565450e-02  -9.2353542560450457e-03  -1.1692657609579944e-02  -7.3916522553511711e-03  -1.3156947997706935e-02  -6.5909495386602991e-03  -1.4990372548461995e-02  -5.9531285797705027e-03  -1.6965637978387568e-02  -5.9817989006605158e-03  -1.8216445273553660e-02  -5.8045163821930394e-03  -1.8929038722933705e-02  -5.1139834129968484e-03  -7.2659048180545235e-02  -1.2586939982194156e-01  -1.7571817638964961e-02  -3.5824013165097679e-03  -1.4087378576981183e-02  -1.1320708602995820e-03  -1.8485818737025714e-01  -9.1025046893500865e-03  1.9507882024511641e-03  -1.7101392403072560e-01  -1.9965553972318348e-01  -1.9414765675186771e-01  -2.0186137327471129e-01  -2.0363285852818214e-01  -2.1099370363000888e-01  -2.1513095797726769e-01  -2.2219418300536226e-01  -2.2848340827149169e-01  -2.3442163726474263e-01  -2.4380019001019579e-01  -2.4667104165617337e-01  -2.5916095504873776e-01  -2.5803150574172151e-01  -2.7325651533174050e-01  -2.6852461484057094e-01  -2.8713485412692941e-01  -2.7810852578098932e-01  -2.9255360513321310e-01  -2.8168545436923931e-01  -2.9581346082675258e-01  -2.8625347166171988e-01  -2.9677583018481635e-01  -2.8683005690067209e-01  -2.9539267636976352e-01  -2.8567741991227513e-01  -2.9248118747315238e-01  -2.8335111083379366e-01  -2.8868906912418635e-01  -2.8020199688177694e-01  -2.7699131190581883e-01  -2.7448449732028324e-01  -2.7188079015506905e-01  -2.7650615435233405e-01  -2.6884438420669160e-01  -2.7245812628589938e-01  -2.6543198627392267e-01  -2.6835604702616200e-01  -2.6181479114137696e-01  -2.6169382048821160e-01  -2.6498399822732654e-01  -2.5809210350426565e-01  -2.5968012690208953e-01  -2.5397702660721533e-01  -2.5194979740961310e-01  -2.4832805304797867e-01  -2.4985375453961883e-01  -2.4462383546984964e-01  -2.4553809166826082e-01  -2.4078161696054223e-01  -2.1892890061012735e-01  -2.4125807580319927e-01  -2.3685517487154303e-01  -2.3586552961918336e-01  -2.3223865464541149e-01  -2.3295165310621022e-01  -2.2853989216962703e-01  -2.2901520464843139e-01  -2.2478886448334529e-01  -2.9068553015628773e-01  -2.6513397877506439e-01  -2.5564701723933475e-01  -3.0605269762484616e-01  -2.2508045942481233e-01  -2.2097025608565515e-01  -2.2057965076939651e-01  -2.1686015944585701e-01  -2.1708272402484113e-01  -2.1309895203268794e-01  -2.1312235789996203e-01  -2.0925491505712654e-01  -2.0916388245516562e-01  -2.0543315946964574e-01  -2.0530797632322029e-01  -2.0160329028744134e-01  -2.4616049289247557e-01  -2.0131158991120274e-01  -1.9775098930607191e-01  -3.0580286341240054e-01  -2.3544149097654871e-01  -2.3114357184014603e-01  -2.9731558738361469e-01  -1.9735712574225475e-01  -1.9376277855274990e-01  -1.9438594489401201e-01  -1.9019854360409597e-01  -1.8983262055173367e-01  -1.8615280017038632e-01  -1.8651616436225685e-01  -1.8250420011309870e-01  -1.8208646840673451e-01  -1.7847582122439032e-01  -2.7495249078275691e-01  -1.7801422688691537e-01  -1.7436205902840077e-01  -2.0513155712864298e-01  -2.4949461670086617e-01  -9.7007046783059714e-02  -2.6500119424983032e-01  -1.7484136457961091e-01  -1.7072938850732750e-01  -1.7022304816629882e-01  -1.6660753618061572e-01  -3.2691442788049005e-03  5.1301521192572298e-03  3.2389555358232043e-03  8.1934585342963162e-03  9.7008232413851054e-03  1.0627708639801529e-02  -1.6591135778970134e-01  -1.6235863691206928e-01  -6.3915146837387332e-02  -1.6294423208106790e-01  -1.5873407776104165e-01  -1.5825473244501545e-01  -1.5454127430639675e-01  -1.7331609929708933e-01  -2.0983802500805546e-01  -2.3326330671754628e-01  -3.8557226726731899e-03  1.5382978749443735e-02  1.2196206066099877e-02  -3.0457651151983223e-02  7.3491520040413951e-03  8.3077292310019708e-03  6.3522376283164190e-03  1.2973653310290259e-02  4.1828568714592342e-03  1.3041966567756094e-02  2.2018025794837315e-03  1.2888264292551787e-02  1.0642533346898956e-03  1.2654138694545415e-02  8.8527769764774238e-04  1.2716350300870259e-02  1.9589523216429318e-03  1.3049326861147252e-02  3.8925404871201137e-03  1.3131094753300768e-02  6.2942968115458639e-03  1.2626274763707656e-02  8.4505464884246251e-03  1.1314971008221781e-02  9.9834145111451396e-03  9.0392139687824648e-03  1.0332686264