<?xml version="1.0"?>
<VTKFile type="UnstructuredGrid"  version="0.1"  >
<UnstructuredGrid>
<Piece  NumberOfPoints="2945" NumberOfCells="5525">
<Points>
<DataArray  type="Float64"  NumberOfComponents="3"  format="ascii">0 0.1 0  0.95 0.1 0  1 0.1 0  1 0 0  1.5 0 0  3 0 0  3 0.3 0  0 0.3 0  0.0197424558707114 0.1 0  0.03915669042224804 0.1 0  0.05824816022699029 0.1 0  0.07702223050332387 0.1 0  0.09548417327144595 0.1 0  0.1136391897583987 0.1 0  0.1314923700144587 0.1 0  0.1490487330862866 0.1 0  0.1663132263225292 0.1 0  0.1832906857273058 0.1 0  0.1999858946008978 0.1 0  0.216403545770297 0.1 0  0.2325482404045023 0.1 0  0.2484245348165176 0.1 0  0.2640368740372501 0.1 0  0.2793896589642241 0.1 0  0.2944872056237027 0.1 0  0.3093337469555254 0.1 0  0.3239334613687816 0.1 0  0.3382904528528069 0.1 0  0.3524087553122972 0.1 0  0.3662923366391824 0.1 0  0.3799451014768399 0.1 0  0.393370886920506 0.1 0  0.4065734648871676 0.1 0  0.419556546320114 0.1 0  0.4323237821343415 0.1 0  0.4448787573056132 0.1 0  0.4572250047274954 0.1 0  0.4693659926332938 0.1 0  0.4813051343276231 0.1 0  0.4930457849308193 0.1 0  0.5045912455271677 0.1 0  0.5159447600209797 0.1 0  0.5271095174127136 0.1 0  0.5380886618453393 0.1 0  0.5488852725463512 0.1 0  0.5595023868312478 0.1 0  0.5699429904313016 0.1 0  0.5802100167387366 0.1 0  0.5903063508274641 0.1 0  0.6002348329443006 0.1 0  0.6099982499579832 0.1 0  0.6195993483501782 0.1 0  0.6290408246013842 0.1 0  0.6383253354321616 0.1 0  0.6474554910757137 0.1 0  0.6564338522440513 0.1 0  0.6652629482939147 0.1 0  0.6739452579188948 0.1 0  0.6824832240165607 0.1 0  0.6908792415022103 0.1 0  0.6991356755989045 0.1 0  0.7072548438546967 0.1 0  0.7152390281534421 0.1 0  0.7230904746196039 0.1 0  0.7308113906759266 0.1 0  0.7384039435269326 0.1 0  0.7458702676581656 0.1 0  0.7532124631720397 0.1 0  0.7604325921167397 0.1 0  0.7675326856666862 0.1 0  0.7745147374421916 0.1 0  0.7813807123989068 0.1 0  0.7881325374362798 0.1 0  0.7947721131625659 0.1 0  0.8013013031866276 0.1 0  0.8077219449067021 0.1 0  0.8140358419942376 0.1 0  0.8202447685401882 0.1 0  0.8263504700910924 0.1 0  0.8323546643163114 0.1 0  0.8382590362474568 0.1 0  0.8440652473522128 0.1 0  0.8497749272799842 0.1 0  0.8553896837646281 0.1 0  0.8609110933285474 0.1 0  0.866340708855119 0.1 0  0.8716800550492284 0.1 0  0.8769306339052932 0.1 0  0.8820939206038667 0.1 0  0.8871713655604893 0.1 0  0.8921643975475726 0.1 0  0.8970744196575535 0.1 0  0.9019028106970642 0.1 0  0.9066509291259979 0.1 0  0.9113201098984042 0.1 0  0.9159116634553873 0.1 0  0.9204268818729691 0.1 0  0.9248670319440222 0.1 0  0.9292333656649013 0.1 0  0.9335271075812669 0.1 0  0.9377494640511216 0.1 0  0.941901623463222 0.1 0  0.9459847526686701 0.1 0  0.9538461538461205 0.1 0  0.9576923076922409 0.1 0  0.9615384615384381 0.1 0  0.9653846153846337 0.1 0  0.9692307692307542 0.1 0  0.9730769230768747 0.1 0  0.9769230769229952 0.1 0  0.9807692307691157 0.1 0  0.9846153846152361 0.1 0  0.9884615384614317 0.1 0  0.9923076923076356 0.1 0  0.9961538461538395 0.1 0  1 0.09591793123533533 0  1 0.09133596463859224 0  1 0.08619288104391448 0  1 0.08041996484521211 0  1 0.07394008421771697 0  1 0.06666666567302955 0  1 0.05850252932209174 0  1 0.04933859630113544 0  1 0.03905242821848202 0  1 0.02750659386753798 0  1 0.01454683679239736 0  1.015625 0 0  1.03125 0 0  1.046875 0 0  1.0625 0 0  1.078125 0 0  1.09375 0 0  1.109375 0 0  1.125 0 0  1.140625 0 0  1.15625 0 0  1.171875 0 0  1.1875 0 0  1.203125 0 0  1.21875 0 0  1.234375 0 0  1.25 0 0  1.265625 0 0  1.28125 0 0  1.296875 0 0  1.3125 0 0  1.328125 0 0  1.34375 0 0  1.359375 0 0  1.375 0 0  1.390625 0 0  1.40625 0 0  1.421875 0 0  1.4375 0 0  1.453125 0 0  1.46875 0 0  1.484375 0 0  1.515920751924515 0 0  1.531989369316721 0 0  1.54820720925872 0 0  1.564575665560501 0 0  1.581096138674279 0 0  1.597770029901263 0 0  1.614598783332311 0 0  1.631583831055205 0 0  1.64872661129721 0 0  1.666028606716533 0 0  1.683491276608443 0 0  1.701116134125304 0 0  1.718904673324128 0 0  1.736858414799339 0 0  1.754978895814663 0 0  1.773267661782904 0 0  1.791726281103402 0 0  1.810356325314689 0 0  1.8291593848892 0 0  1.848137076690385 0 0  1.867291007717254 0 0  1.886622833871288 0 0  1.90613418642363 0 0  1.925826753299799 0 0  1.945702199101513 0 0  1.96576223584749 0 0  1.986008569283268 0 0  2.006442931928877 0 0  2.02706707547783 0 0  2.047882750887917 0 0  2.06889175187935 0 0  2.090095860038271 0 0  2.111496891648636 0 0  2.133096679109554 0 0  2.154897066851056 0 0  2.176899916687499 0 0  2.199107102752146 0 0  2.22152053937028 0 0  2.244142122958061 0 0  2.266973806444078 0 0  2.290017523268154 0 0  2.313275249499252 0 0  2.336748971745516 0 0  2.360440702338606 0 0  2.384352453384031 0 0  2.408486280477412 0 0  2.432844240041185 0 0  2.457428414757088 0 0  2.482240901796653 0 0  2.507283830121838 0 0  2.532559332080812 0 0  2.558069568787417 0 0  2.583816724966441 0 0  2.60980299606584 0 0  2.636030600971886 0 0  2.662501790984011 0 0  2.689218818279327 0 0  2.716183964547616 0 0  2.743399548861297 0 0  2.77086788244719 0 0  2.798591312896326 0 0  2.826572223178268 0 0  2.854812990138617 0 0  2.883316031690714 0 0  2.912083780657189 0 0  2.941118704633482 0 0  2.970423276998917 0 0  3 0.02999999999994495 0  3 0.05999999999987042 0  3 0.089999999999783 0  3 0.119999999999701 0  3 0.149999999999619 0  3 0.179999999999692 0  3 0.2099999999997737 0  3 0.2399999999998511 0  3 0.2699999999999185 0  2.970138294777171 0.3 0  2.940375666438236 0.3 0  2.910711782853056 0.3 0  2.881146331305122 0.3 0  2.851678975030285 0.3 0  2.822309388626621 0.3 0  2.793037250095074 0.3 0  2.76386223529133 0.3 0  2.734784017903872 0.3 0  2.705802289276642 0.3 0  2.676916713794697 0.3 0  2.648126987654635 0.3 0  2.619432780406184 0.3 0  2.590833779385199 0.3 0  2.562329669847737 0.3 0  2.533920134950189 0.3 0  2.505604855727852 0.3 0  2.477383539822502 0.3 0  2.449255847639465 0.3 0  2.421221492569094 0.3 0  2.393280152486815 0.3 0  2.36543151914496 0.3 0  2.337675285481809 0.3 0  2.310011142385583 0.3 0  2.282438797441587 0.3 0  2.254957931061538 0.3 0  2.227568248063605 0.3 0  2.200269436651085 0.3 0  2.173061204949961 0.3 0  2.145943251515011 0.3 0  2.118915272469994 0.3 0  2.091976978084957 0.3 0  2.065128060700849 0.3 0  2.038368218849433 0.3 0  2.01169717777258 0.3 0  1.985114624111908 0.3 0  1.958620267850966 0.3 0  1.93221382054972 0.3 0  1.905894991850698 0.3 0  1.879663489459713 0.3 0  1.853519019126419 0.3 0  1.827461291053897 0.3 0  1.801490031354372 0.3 0  1.775604937580312 0.3 0  1.74980572560258 0.3 0  1.724092118631866 0.3 0  1.698463829173586 0.3 0  1.672920575782554 0.3 0  1.647462076974085 0.3 0  1.622088043536933 0.3 0  1.5967981978949 0.3 0  1.571592267767068 0.3 0  1.546469970305736 0.3 0  1.521431023814044 0.3 0  1.496475156230927 0.3 0  1.471602093687753 0.3 0  1.446811560490646 0.3 0  1.422103279101731 0.3 0  1.397476971708191 0.3 0  1.37293238939876 0.3 0  1.348469231419202 0.3 0  1.324087248732772 0.3 0  1.299786165921677 0.3 0  1.275565710847046 0.3 0  1.251425617644257 0.3 0  1.227365618676339 0.3 0  1.203385446174014 0.3 0  1.179484853067473 0.3 0  1.155663548773374 0.3 0  1.131921292279077 0.3 0  1.108257802159295 0.3 0  1.084672829009693 0.3 0  1.061166115303374 0.3 0  1.037737392995421 0.3 0  1.01438640299116 0.3 0  0.991112899770314 0.3 0  0.9679166155523955 0.3 0  0.944797284182564 0.3 0  0.921754678526042 0.3 0  0.8987885143602501 0.3 0  0.8758985548820624 0.3 0  0.8530845484099929 0.3 0  0.8303462351786988 0.3 0  0.8076833651172373 0.3 0  0.7850956864865304 0.3 0  0.7625829601354557 0.3 0  0.7401449314598274 0.3 0  0.717781337993959 0.3 0  0.6954919649675473 0.3 0  0.6732765357561226 0.3 0  0.6511348120768439 0.3 0  0.6290665642016573 0.3 0  0.6070715355430467 0.3 0  0.5851494825775325 0.3 0  0.5633001690203812 0.3 0  0.5415233562273221 0.3 0  0.5198187909431873 0.3 0  0.4981862401387795 0.3 0  0.4766254686134248 0.3 0  0.4551362360485234 0.3 0  0.4337182975262159 0.3 0  0.4123714223228037 0.3 0  0.3910953802377493 0.3 0  0.3698899313205595 0.3 0  0.3487548463710963 0.3 0  0.3276898864081783 0.3 0  0.3066948129116018 0.3 0  0.2857694003037476 0.3 0  0.2649134227095047 0.3 0  0.2441266417321288 0.3 0  0.2234088223399122 0.3 0  0.2027597568977288 0.3 0  0.1821792020676698 0.3 0  0.1616669305402443 0.3 0  0.1412227158799362 0.3 0  0.12084633013886 0.3 0  0.1005375673448281 0.3 0  0.08029618164595353 0.3 0  0.06012194778526769 0.3 0  0.04001466495039718 0.3 0  0.01997408913631205 0.3 0  0 0.2800000000000553 0  0 0.2600000000001105 0  0 0.2400000000001658 0  0 0.2200000000002211 0  0 0.2000000000002764 0  0 0.1800000000002244 0  0 0.1600000000001691 0  0 0.140000000000115 0  0 0.1200000000000564 0  1.133778471000506 0.01219539743990768 0  1.003741919047894 0.09354664821474232 0  0.9559421147150347 0.1035858189992458 0  0.9313792160389045 0.1037365237938103 0  0.9788461538460573 0.1033060829993555 0  0.9090102438250753 0.1037269304984056 0  0.8846304212778655 0.1043349840723655 0  0.8581503885465881 0.104741932962923 0  0.8286416220145676 0.1052762843984476 0  0.7982741772533339 0.1053575624517407 0  0.7708789559342691 0.1060290465840416 0  0.741870349714261 0.1078220590984258 0  0.7112469360040695 0.10685702926368 0  0.6783901541417233 0.1079959711853378 0  0.642884733623195 0.1075561996086514 0  0.6056235042367955 0.1085956039602543 0  0.5647007593786924 0.1083187281660325 0  1.1953125 0.01353164693413185 0  1.258148737344733 0.01268350115427042 0  1.320087046516829 0.01426312402966312 0  1.383495130751951 0.01432665475473204 0  1.4453125 0.01315663539200989 0  1.50886768312388 0.01395488397722681 0  0.9942307692307371 0.103330866937657 0  1.119309781943483 0.2802014914557878 0  1.572831235329714 0.01707210522554785 0  1.637611634353954 0.01209340368483431 0  1.709661292005932 0.0146870244871893 0  1.006561890631532 0.07068055446055937 0  1.784793444007901 0.01499371444634687 0  1.855459587353174 0.0
[...]
<PointData  Scalars="pressure"> 
<DataArray  type="Float64"  Name="pressure"  format="ascii">2.6656475121108425e-01  -6.8923860390857530e-02  -4.4992244977891289e-02  2.4806278704990636e-02  1.0207491760053171e-01  0.0000000000000000e+00  0.0000000000000000e+00  2.6659164397502499e-01  2.6064204171894245e-01  2.5481751300163286e-01  2.4908944697225080e-01  2.4345619606437710e-01  2.3791608603639233e-01  2.3246757190457518e-01  2.2710904107963215e-01  2.2183890107725457e-01  2.1665570699628761e-01  2.1155776976316015e-01  2.0654362115891253e-01  2.0161184213783648e-01  1.9676083396164903e-01  1.9198919215139698e-01  1.8729535499107938e-01  1.8267793512574720e-01  1.7813534921601892e-01  1.7366628227755654e-01  1.6926913745379193e-01  1.6494262024215914e-01  1.6068501081928482e-01  1.5649506848369435e-01  1.5237167607465024e-01  1.4831266312217445e-01  1.4431699953163199e-01  1.4038305284832372e-01  1.3650963356627838e-01  1.3269491530698410e-01  1.2893770791417763e-01  1.2523626615396496e-01  1.2158939754361665e-01  1.1799577554523021e-01  1.1445313850311629e-01  1.1096045592934640e-01  1.0751636274750677e-01  1.0411918745939125e-01  1.0076716267810801e-01  9.7459143691337263e-02  9.4193270050163772e-02  9.0968269788092498e-02  8.7782191987821848e-02  8.4633672611914429e-02  8.1521247672120697e-02  7.8443302732395040e-02  7.5397981540779077e-02  7.2384142652970010e-02  6.9399675242333494e-02  6.6443362628697072e-02  6.3513562721054975e-02  6.0607819145709632e-02  5.7726331947142211e-02  5.4865129119406872e-02  5.2024173612973623e-02  4.9202381416064520e-02  4.6396886312707983e-02  4.3606131534093880e-02  4.0829335609030473e-02  3.8062064866560219e-02  3.5307595232378218e-02  3.2561516962948199e-02  2.9820978159472149e-02  2.7086413948215381e-02  2.4353600435676845e-02  2.1625157629932969e-02  1.8896758337075402e-02  1.6165374239609107e-02  1.3431179316478225e-02  1.0691772643545240e-02  7.9456323773791256e-03  5.1902162282663599e-03  2.4246908215685508e-03  -3.5386618067502333e-04  -3.1454230814772495e-03  -5.9534943425745713e-03  -8.7818540509612304e-03  -1.1630599170880945e-02  -1.4502171612134936e-02  -1.7401044745888827e-02  -2.0327156265420348e-02  -2.3284837895338712e-02  -2.6277380700288813e-02  -2.9312116917506802e-02  -3.2387201624860855e-02  -3.5509821846732008e-02  -3.8683785657361726e-02  -4.1925023889269067e-02  -4.5220666962506380e-02  -4.8521051522773723e-02  -5.2734729564906740e-02  -5.1756810587082050e-02  -7.7489142722684701e-02  -3.9338937548802806e-02  -7.1084157200712983e-02  -6.9225091579858331e-02  -7.6168235470521511e-02  -8.1578935322972237e-02  -9.7224978797410475e-02  -1.0057068727733967e-01  -9.8791821232904864e-02  -9.2176102293122911e-02  -8.2345242827501317e-02  -7.0385298944622171e-02  -5.7476736177009331e-02  -4.4523146950997294e-02  -3.2254462176764927e-02  -2.3479733270856683e-02  -3.3303303759258870e-03  -3.5570493146880267e-02  -8.9052968208965504e-03  4.7631505095005705e-04  7.5017491198683178e-03  1.2436506530371035e-02  1.6378061245279855e-02  1.9642241522289723e-02  2.2239193315658413e-02  2.4144694411227356e-02  2.5228007732238204e-02  2.5242594550504899e-02  2.4261349506385119e-02  2.4482636056857150e-02  2.5957071000330838e-02  2.8522603238473044e-02  3.2064904255218525e-02  3.6406591662764942e-02  4.1383357376413479e-02  4.6867475375364148e-02  5.2571716091987609e-02  5.8229440800230604e-02  6.3619277079203035e-02  6.8520750261341010e-02  7.2738390209304074e-02  7.6117977797571790e-02  7.8540104911018524e-02  7.9977595078329869e-02  8.0433210794047402e-02  7.9932336353880709e-02  7.8614660011490700e-02  7.6681675358002785e-02  7.4209673311221400e-02  7.1770651762676677e-02  6.9420998621534266e-02  6.7663024417651457e-02  6.6680732173558036e-02  6.7165708031564575e-02  6.8946111742134872e-02  7.2459454947444060e-02  7.7646854796033699e-02  8.4465858882303083e-02  9.2716252445596975e-02  1.1235704892419660e-01  1.2300427300740834e-01  1.3357601788309217e-01  1.4350031472344030e-01  1.5253953067352133e-01  1.6015600974287861e-01  1.6626816318107629e-01  1.7060425910878740e-01  1.7311333873717852e-01  1.7390955719704723e-01  1.7310617176284840e-01  1.7084527951773615e-01  1.6727374564011854e-01  1.6260421224811519e-01  1.5699741280876645e-01  1.5064334092192283e-01  1.4373779247320428e-01  1.3652081015970552e-01  1.2905867651697422e-01  1.2194694114157113e-01  1.1525698440423343e-01  1.0946022662358394e-01  1.0495443087636386e-01  1.0195744223464204e-01  1.0075465801952199e-01  1.0125252602668344e-01  1.0332320443152894e-01  1.0674227432175042e-01  1.1096510400751704e-01  1.1544634929873954e-01  1.1969041642328317e-01  1.2316807529521501e-01  1.2550146123920244e-01  1.2645892204823872e-01  1.2593596082821054e-01  1.2396898252189965e-01  1.2066901704926564e-01  1.1622987549356517e-01  1.1082068660630805e-01  1.0464670293163615e-01  9.7867892793476852e-02  9.0634608541498796e-02  8.3094986129690684e-02  7.5477708776931593e-02  6.8090116476044613e-02  6.1372693291028832e-02  5.5795746327336991e-02  5.1817592990155960e-02  4.9747680876792981e-02  4.9756189833175569e-02  5.1586126060871741e-02  5.4611374812928555e-02  5.8460128401540565e-02  6.2034897422461655e-02  6.4758529971018483e-02  6.6171079492861967e-02  6.5755085365065483e-02  6.3464551953923837e-02  5.9478737936618814e-02  5.3982223075467281e-02  4.7273255998617501e-02  3.9569754830353195e-02  3.1402979819683756e-02  2.3079016934001811e-02  1.5205394622265587e-02  8.3005498522672680e-03  2.9624296319200327e-03  0.0000000000000000e+00  0.0000000000000000e+00  0.0000000000000000e+00  0.0000000000000000e+00  0.0000000000000000e+00  0.0000000000000000e+00  0.0000000000000000e+00  0.0000000000000000e+00  0.0000000000000000e+00  7.0861262511992852e-03  1.1125284923974991e-02  1.2864205804200828e-02  1.2807942776318741e-02  1.1765514508081868e-02  1.0867373840842220e-02  1.1153813864429088e-02  1.3457099417746929e-02  1.8218306320331577e-02  2.5392756277640715e-02  3.4511509838024722e-02  4.4833417822663355e-02  5.5564402201145710e-02  6.6054283397209798e-02  7.5809121893714942e-02  8.4486205202967013e-02  9.1795544197501605e-02  9.7358218035169364e-02  1.0081512069056546e-01  1.0182101544827336e-01  1.0020780025056350e-01  9.6113412294789660e-02  9.0091808071296298e-02  8.3095444570645424e-02  7.6325159957932223e-02  7.1114973144296892e-02  6.8609301888582386e-02  6.9447563997709558e-02  7.3756446515234414e-02  8.1047055384511124e-02  9.0427764074319267e-02  1.0079989622503793e-01  1.1141814471837977e-01  1.2119880768280568e-01  1.2962030911926145e-01  1.3671893731791057e-01  1.4173485030675131e-01  1.4464772897661632e-01  1.4502802815234642e-01  1.4277122325887681e-01  1.3781234812068477e-01  1.3015126303096203e-01  1.2053705578320180e-01  1.0975711345725647e-01  9.8969324006961054e-02  8.9403758820337964e-02  8.2102733552345819e-02  7.7781663955997157e-02  7.6524976235772396e-02  7.7885016674408877e-02  8.1222298138641777e-02  8.5467683208544420e-02  9.0054846145403503e-02  9.3945286181302975e-02  9.6817163458110811e-02  9.8479433132431002e-02  9.8894073396378485e-02  9.8073642873443917e-02  9.6095686983257073e-02  9.3036782646250635e-02  8.8998636033161951e-02  8.4101978530527352e-02  7.8578667947692263e-02  7.2590704851797333e-02  6.6384440136506129e-02  6.0186645619790390e-02  5.4165509438814506e-02  4.8483547145150192e-02  4.3255864704536059e-02  3.8530293478472637e-02  3.4385035415523506e-02  3.0795825446299580e-02  2.7724498354368857e-02  2.5213972140405976e-02  2.3353727780502955e-02  2.2062720165001087e-02  2.1478579420379087e-02  2.1646662963659295e-02  2.2326832346579374e-02  2.3957188475116777e-02  2.6278523547895304e-02  2.9266215419777607e-02  3.2788337410541414e-02  3.6814676320417877e-02  4.1315677952624155e-02  4.6206183551138320e-02  5.1384923418181454e-02  5.6812730917240040e-02  6.2478162383626565e-02  6.8289994295976875e-02  7.4246656222541715e-02  8.0301651449161515e-02  8.6438119815122713e-02  9.2642330340554191e-02  9.8897125664053814e-02  1.0518289991716520e-01  1.1149432963058430e-01  1.1782350635338623e-01  1.2416169923695719e-01  1.3050123285534934e-01  1.3683845526115820e-01  1.4317296864979293e-01  1.4949835608088388e-01  1.5581368234561346e-01  1.6211606085918279e-01  1.6840495886877790e-01  1.7467902465383373e-01  1.8093591902987888e-01  1.8717683230113807e-01  1.9339926209082803e-01  1.9960400287085911e-01  2.0579019020638864e-01  2.1195729297748261e-01  2.1810559372645197e-01  2.2423455885863913e-01  2.3034416285202133e-01  2.3643431377061727e-01  2.4250494566345074e-01  2.4855603165377757e-01  2.5458753618059643e-01  2.6059941726140612e-01  2.6659156983186583e-01  2.6659046551567883e-01  2.6658770553944300e-01  2.6658341954468096e-01  2.6657820370985419e-01  2.6657299612870128e-01  2.6656869427529084e-01  2.6656595536857641e-01  2.6656484635129851e-01  4.9958910448155237e-02  -1.2709013201440749e-02  -9.4770591194462558e-02  -5.9632495796624531e-02  -6.3028828307157572e-02  -4.3952542734619383e-02  -2.8069352406766775e-02  -1.3274456828597937e-02  1.2016969504650571e-03  1.4580629792878139e-02  2.5679311692540400e-02  3.6693593231918127e-02  4.7739972461336364e-02  5.9058771643362609e-02  7.0861301879531075e-02  8.2891417848625970e-02  9.5817601497416666e-02  7.0470753476772521e-02  8.0383924652466840e-02  7.6002817403318004e-02  6.7421169414176876e-02  7.4498029150216763e-02  1.0660646773269272e-01  -1.9014752111560014e-02  3.6890428157885270e-02  1.4676965578475384e-01  1.7089342152846648e-01  1.6910429744951055e-01  1.3734782372781959e-02  1.4671038587154170e-01  1.1970760298352222e-01  1.0911979471517533e-01  1.0094005805961771e-01  5.7484705664468352e-02  8.1853558349310462e-02  1.0892885976299083e-01  9.7690388167236283e-02  1.2361788239511398e-01  9.3240109115212938e-02  1.2393645538292275e-01  1.3777602968308941e-01  3.4543550453102090e-02  1.2258933106998179e-01  7.6464388703243749e-02  2.7312429079310856e-02  1.5396890140763658e-01  1.0173624163065399e-01  1.2483060039138141e-01  1.7176283249569410e-01  1.4392984135178707e-01  7.2198558111715064e-02  1.3933391055547217e-01  2.2285778434703456e-02  5.0157212365215240e-02  1.8964132335034753e-01  1.1669660874346204e-01  2.5547391756684051e-02  3.5376800663605081e-02  8.5782997306639880e-02  5.5639148605544649e-02  2.0954790901348364e-01  2.2435605906498146e-01  9.3029631090150819e-02  6.5365995812788194e-02  6.1484411721204432e-02  5.3903207503142675e-02  6.8086488013356636e-02  8.6048169388860229e-02  7.1531338801910357e-02  -7.3072391188835281e-02  -9.5335466542049330e-02  8.9390789682089494e-02  1.0100556955534838e-01  4.4330114768718253e-02  1.1380535988795872e-01  8.8713897196077002e-02  1.4616389112782599e-01  6.1541690774241445e-02  1.7780870330439019e-01  3.0071688478700155e-02  1.9640062091987245e-01  2.3325883186687058e-01  2.1517692374576880e-01  1.1398626815266452e-02  2.6153379460274923e-01  4.7279244849389177e-03  2.4087567141481078e-01  2.2625132550375366e-02  1.1480187392208989e-02  1.9034807526752136e-02  4.8823304048676896e-03  2.7502832706108826e-02  2.3670933949732225e-02  4.6125703568524024e-02  4.3738189044377568e-02  1.0209474068190544e-01  1.2703212040636666e-01  1.5970313728282559e-01  8.3933556100289200e-02  9.9340111405698026e-02  9.1907388609148308e-02  6.9823192978056337e-02  1.9918563906408288e-01  1.8048668876964516e-01  7.2385355417106209e-02  9.9485901098702201e-02  1.6327753032219258e-01  4.9663501915615686e-02  2.4543389218089134e-01  5.8344786488869184e-02  8.7372855530079244e-02  1.4600516140096620e-01  1.1392342970937261e-01  2.6150830267761654e-01  1.2621876962224990e-01  1.3091133596467586e-01  1.1645418519398018e-01  1.0185612433952911e-01  1.2708712084147189e-01  1.0770766953525038e-01  1.1608049286876375e-01  1.3325058669748385e-01  1.6000793642780684e-01  1.7329576858802112e-01  1.0231647878113702e-01  1.6264997179050555e-01  1.0195361846166854e-03  8.9358303964223229e-02  7.6854105876614592e-02  6.4690015560909087e-02  5.3720575339999306e-02  4.1966072482654063e-02  3.1093986851130930e-02  1.9880441361222183e-02  6.4329325020837840e-03  6.1060502855108986e-02  -7.5443861458479302e-03  -2.2143324635330641e-02  -3.7439083339588348e-02  7.7297679625803403e-02  -5.4488291299127412e-02  7.1083294323298130e-02  7.9483706653245084e-02  6.7666857255080634e-02  8.7672015419790347e-02  2.6192205543225172e-01  -3.7438473591275910e-02  7.3106140544180074e-03  2.5191477225952319e-01  1.1980930341087243e-02  2.4873074779750166e-02  1.5673732769333176e-03  2.6206798397050041e-01  2.5722390586456260e-02  2.6251715704127616e-02  2.8050480210327404e-02  2.6087240511377625e-02  2.7947522796058732e-02  2.5487187176320501e-02  2.7728261828885790e-02  2.4809206875154942e-02  2.7456923740024380e-02  2.4437683133597576e-02  2.7663975180482799e-02  2.4805115334533070e-02  2.8795167948083403e-02  2.6259110102547573e-02  3.0970463094205442e-02  2.8667461261594987e-02  3.4166324902899829e-02  3.1685695537393054e-02  3.7639292233123595e-02  3.4811525378617147e-02  4.1070513544240329e-02  2.8529922230783364e-02  4.4495220675562774e-02  4.7760754663067180e-02  3.1506002276529652e-02  2.4909626634669835e-02  5.1887048323984747e-02  5.4758642588651256e-02  5.8726285451689536e-02  6.1373793383265228e-02  6.5825522561717642e-02  6.7476898564581417e-02  7.2167227139447482e-02  7.2704018746174631e-02  7.7681953867181922e-02  7.6481628022078141e-02  8.1795284389424169e-02  8.0464871491869497e-02  8.4632715653236143e-02  8.2518325247826610e-02  8.5838736986279876e-02  8.2846342001562226e-02  8.5417900018516874e-02  8.2844304521089540e-02  8.3680053455553571e-02  8.1517784323884429e-02  8.0835819534520736e-02  7.9748080890952588e-02  7.7394876089045508e-02  7.7802821360856492e-02  7.4103923183884590e-02  2.8062503532114112e-02  2.1740279471980459e-02  7.6215152475739553e-02  7.0678651629798347e-02  7.5223170926247071e-02  6.9517199718210979e-02  7.5629956565442025e-02  6.9675558138127355e-02  7.7196287080729342e-02  7.1636266616957378e-02  8.0080707304943335e-02  7.5544639096316243e-02  4.9910470776622445e-02  8.3932822472375573e-02  8.1066913251946524e-02  8.8423291759104364e-02  8.7625363104565715e-02  9.2985539645003834e-02  9.4563635993032219e-02  2.4809224215931923e-02  1.8524894401665461e-02  2.2194806834737308e-02  9.7017808691376925e-02  1.0122224137461365e-01  1.8265647695650200e-02  1.0021769538243690e-01  1.0701521653683707e-01  1.0219024332053885e-01  1.1148506928944667e-01  1.0306531733411715e-01  1.1453835673162169e-01  6.6888046061220063e-02  1.0229430404639442e-01  1.1616015148174590e-01  1.0193552678260194e-01  1.1706471228104624e-01  1.0128109953816976e-01  1.1741410445161553e-01  3.3751906678401333e-02  7.8336732790054070e-02  1.0137653209742498e-01  1.1758218426132583e-01  2.2123844296844861e-02  1.4928646307287959e-02  2.7916497632911371e-02  8.1057915206127332e-02  1.0102269041084312e-01  1.1829144465613760e-01  1.0312242038761865e-01  1.1942208736831365e-01  1.0657170962663599e-01  1.2083006672767958e-01  9.9522899216752558e-02  1.3560030243603083e-01  1.2412075196817172e-01  7.3412820532605755e-02  1.1131492086843327e-01  1.2263341310360509e-01  1.3253174208036311e-01  1.3113514343399149e-01  1.2473454214010349e-01  1.2954220929102783e-01  1.2669218478214520e-01  1.2773298443631417e-01  1.2824083312178325e-01  1.2573627701383500e-01  1.2931112282633375e-01  1.2384970877195853e-01  1.2983497429129642e-01  1.2208337595553517e-01  1.3012450429418929e-01  1.2080415411685054e-01  1.2969974141543814e-01  1.1936764162752389e-01  1.2884587872584294e-01  1.1877879308624616e-01  1.2742388788166012e-01  1.1821319473247126e-01  1.2551084872212012e-01  1.1746039846820010e-01  6.4960492999372774e-02  8.0467293706898785e-02  1.2225136475212428e-01  1.1601681219303042e-01  1.1770973646808992e-01  1.1348742348121832e-01  6.9485414024954895e-02  1.1194526223565333e-01  1.0990062194643158e-01  8.3268654622612792e-02  8.7299258305261224e-02  2.0259707928798425e-02  1.5195733127758383e-02  7.8201780588831801e-03  7.5194750657196574e-03  -1.4073586467062390e-05  2.4546033914245281e-04  -8.0662607785745282e-03  -6.5857283946386264e-03  -1.6140801293696681e-02  -1.2865273655962947e-02  -2.3342969875648489e-02  -1.7875387208899734e-02  -2.9174676527159295e-02  -2.1992147110303069e-02  -3.4532483167542781e-02  -2.5567106357766690e-02  -3.4700447778790666e-02  -2.4984634588485689e-02  -3.4254412380701073e-02  -2.5883883081952771e-02  -3.2562626832574715e-02  -2.4244535755977861e-02  -2.9675571897086694e-02  -2.1706978268841243e-02  -2.6031955393807822e-02  -1.8589027494559752e-02  -2.1961940885291482e-02  -1.4995665177901648e-02  -1.7397979694280589e-02  -1.1115568041824026e-02  -7.9602147839129538e-03  -1.1122527116509271e-02  -4.6043724816579104e-03  -7.0941486872697079e-03  -1.0516665850165781e-03  -3.1237886837338141e-03  2.5902684765229914e-03  1.6480261940472320e-03  2.2155039344795105e-04  6.2734543934265486e-03  5.2163863238794692e-03  1.0289819259307926e-02  1.1771907090248994e-02  1.5401456849408876e-02  1.4297814852024414e-02  1.9079518186434361e-02  1.8468750476296154e-02  2.2863637351809886e-02  -6.9342193444416715e-03  2.2610099713188364e-02  2.6725312606145645e-02  2.7461831738848384e-02  3.1083143351541324e-02  3.0565637214204213e-02  3.4761060280506038e-02  3.4435003921973774e-02  3.8480294982746965e-02  -4.0544545605474741e-02  -1.6471941875037470e-02  -2.6256675246087272e-02  -4.2627112669199198e-02  3.8319561818639582e-02  4.2264895285300023e-02  4.2547168791225852e-02  4.6258229208818259e-02  4.6114130764839632e-02  5.0004775788484862e-02  5.0036106060448886e-02  5.3829790283131222e-02  5.3874712137411081e-02  5.7603433535860005e-02  5.7756610020969372e-02  6.1424621021240890e-02  1.7041269997590924e-02  6.1732417994976106e-02  6.5265788859338467e-02  -3.7867764839002123e-02  -2.7364185969503563e-03  3.1930247613844810e-02  -2.8777503145193457e-02  6.5667513106470274e-02  6.9241573277566276e-02  6.8618240582610943e-02  7.2798507466498186e-02  7.3159607172400345e-02  7.6835978903743149e-02  7.6484063636519065e-02  8.0490356711601721e-02  8.0893589239034919e-02  8.4511676314406134e-02  -8.7347625765154969e-03  8.4957705577167641e-02  8.8618194821317969e-02  5.7869104924837399e-02  1.4875071332135852e-02  8.3527168667826071e-02  5.8106119207847477e-04  8.8159239999746744e-02  9.2264109092157764e-02  9.2750091816913544e-02  9.6378738718512463e-02  1.0509882054573333e-01  1.0512525789089586e-01  9.7523207522808200e-02  9.9642049343027977e-02  8.9810490693908909e-02  9.3888805420597216e-02  9.7055464059331034e-02  1.0062077019697095e-01  9.6030096049909100e-02  1.0005759992285038e-01  1.0426030167147718e-01  1.0471908612703691e-01  1.0844634843087107e-01  2.2758742004191684e-02  1.3154523476566251e-02  3.0414179675681066e-02  1.1631607134798694e-01  8.2656624326363323e-02  8.8638827614238205e-02  1.4020360242504373e-01  1.1112594737730794e-01  1.0180240736426467e-01  9.7786903454897142e-02  8.4336162922675553e-02  9.4173769239694879e-02  8.1540966384789623e-02  9.1171132199405286e-02  8.0141822564746251e-02  8.8690441615511692e-02  8.0148958565557343e-02  8.6709635661547921e-02  8.1012550849201198e-02  8.4840350002307399e-02  8.2341488670008109e-02  8.2960429158796964e-02  8.3652348588272765e-02  8.0794564713287401e-02  8.4415725724753185e-02  7.8328286826657170e-02  8.4278907310788145e-02  7.5557759780580713e-02  8.3511247303988692e-02  7.2916498670447541e-02  8.2167327436095325e-02  7.0432408532814669e-02  1.0893628771686939e-01  1.1267087050650915e-01  1.1243772490578770e-01  1.1652238747388588e-01  1.1697311051493012e-01  1.2076899861376508e-01  8.0157978869743421e-02  6.8398130895701098e-02  7.6870159560381277e-02  6.6520841668929867e-02  7.4815745783763932e-02  6.4943908035011350e-02  1.1152375876266449e-01  1.1999864696789851e-01  1.2462752409242545e-01  1.2527906207526054e-01  1.2914962534799959e-01  4.6454973146032856e-02  5.0269151325460594e-02  1.2864694684045702e-01  1.3310529551360947e-01  1.3348176263