<?xml version="1.0"?>
<VTKFile type="UnstructuredGrid"  version="0.1"  >
<UnstructuredGrid>
<Piece  NumberOfPoints="2945" NumberOfCells="5525">
<Points>
<DataArray  type="Float64"  NumberOfComponents="3"  format="ascii">0 0.1 0  0.95 0.1 0  1 0.1 0  1 0 0  1.5 0 0  3 0 0  3 0.3 0  0 0.3 0  0.0197424558707114 0.1 0  0.03915669042224804 0.1 0  0.05824816022699029 0.1 0  0.07702223050332387 0.1 0  0.09548417327144595 0.1 0  0.1136391897583987 0.1 0  0.1314923700144587 0.1 0  0.1490487330862866 0.1 0  0.1663132263225292 0.1 0  0.1832906857273058 0.1 0  0.1999858946008978 0.1 0  0.216403545770297 0.1 0  0.2325482404045023 0.1 0  0.2484245348165176 0.1 0  0.2640368740372501 0.1 0  0.2793896589642241 0.1 0  0.2944872056237027 0.1 0  0.3093337469555254 0.1 0  0.3239334613687816 0.1 0  0.3382904528528069 0.1 0  0.3524087553122972 0.1 0  0.3662923366391824 0.1 0  0.3799451014768399 0.1 0  0.393370886920506 0.1 0  0.4065734648871676 0.1 0  0.419556546320114 0.1 0  0.4323237821343415 0.1 0  0.4448787573056132 0.1 0  0.4572250047274954 0.1 0  0.4693659926332938 0.1 0  0.4813051343276231 0.1 0  0.4930457849308193 0.1 0  0.5045912455271677 0.1 0  0.5159447600209797 0.1 0  0.5271095174127136 0.1 0  0.5380886618453393 0.1 0  0.5488852725463512 0.1 0  0.5595023868312478 0.1 0  0.5699429904313016 0.1 0  0.5802100167387366 0.1 0  0.5903063508274641 0.1 0  0.6002348329443006 0.1 0  0.6099982499579832 0.1 0  0.6195993483501782 0.1 0  0.6290408246013842 0.1 0  0.6383253354321616 0.1 0  0.6474554910757137 0.1 0  0.6564338522440513 0.1 0  0.6652629482939147 0.1 0  0.6739452579188948 0.1 0  0.6824832240165607 0.1 0  0.6908792415022103 0.1 0  0.6991356755989045 0.1 0  0.7072548438546967 0.1 0  0.7152390281534421 0.1 0  0.7230904746196039 0.1 0  0.7308113906759266 0.1 0  0.7384039435269326 0.1 0  0.7458702676581656 0.1 0  0.7532124631720397 0.1 0  0.7604325921167397 0.1 0  0.7675326856666862 0.1 0  0.7745147374421916 0.1 0  0.7813807123989068 0.1 0  0.7881325374362798 0.1 0  0.7947721131625659 0.1 0  0.8013013031866276 0.1 0  0.8077219449067021 0.1 0  0.8140358419942376 0.1 0  0.8202447685401882 0.1 0  0.8263504700910924 0.1 0  0.8323546643163114 0.1 0  0.8382590362474568 0.1 0  0.8440652473522128 0.1 0  0.8497749272799842 0.1 0  0.8553896837646281 0.1 0  0.8609110933285474 0.1 0  0.866340708855119 0.1 0  0.8716800550492284 0.1 0  0.8769306339052932 0.1 0  0.8820939206038667 0.1 0  0.8871713655604893 0.1 0  0.8921643975475726 0.1 0  0.8970744196575535 0.1 0  0.9019028106970642 0.1 0  0.9066509291259979 0.1 0  0.9113201098984042 0.1 0  0.9159116634553873 0.1 0  0.9204268818729691 0.1 0  0.9248670319440222 0.1 0  0.9292333656649013 0.1 0  0.9335271075812669 0.1 0  0.9377494640511216 0.1 0  0.941901623463222 0.1 0  0.9459847526686701 0.1 0  0.9538461538461205 0.1 0  0.9576923076922409 0.1 0  0.9615384615384381 0.1 0  0.9653846153846337 0.1 0  0.9692307692307542 0.1 0  0.9730769230768747 0.1 0  0.9769230769229952 0.1 0  0.9807692307691157 0.1 0  0.9846153846152361 0.1 0  0.9884615384614317 0.1 0  0.9923076923076356 0.1 0  0.9961538461538395 0.1 0  1 0.09591793123533533 0  1 0.09133596463859224 0  1 0.08619288104391448 0  1 0.08041996484521211 0  1 0.07394008421771697 0  1 0.06666666567302955 0  1 0.05850252932209174 0  1 0.04933859630113544 0  1 0.03905242821848202 0  1 0.02750659386753798 0  1 0.01454683679239736 0  1.015625 0 0  1.03125 0 0  1.046875 0 0  1.0625 0 0  1.078125 0 0  1.09375 0 0  1.109375 0 0  1.125 0 0  1.140625 0 0  1.15625 0 0  1.171875 0 0  1.1875 0 0  1.203125 0 0  1.21875 0 0  1.234375 0 0  1.25 0 0  1.265625 0 0  1.28125 0 0  1.296875 0 0  1.3125 0 0  1.328125 0 0  1.34375 0 0  1.359375 0 0  1.375 0 0  1.390625 0 0  1.40625 0 0  1.421875 0 0  1.4375 0 0  1.453125 0 0  1.46875 0 0  1.484375 0 0  1.515920751924515 0 0  1.531989369316721 0 0  1.54820720925872 0 0  1.564575665560501 0 0  1.581096138674279 0 0  1.597770029901263 0 0  1.614598783332311 0 0  1.631583831055205 0 0  1.64872661129721 0 0  1.666028606716533 0 0  1.683491276608443 0 0  1.701116134125304 0 0  1.718904673324128 0 0  1.736858414799339 0 0  1.754978895814663 0 0  1.773267661782904 0 0  1.791726281103402 0 0  1.810356325314689 0 0  1.8291593848892 0 0  1.848137076690385 0 0  1.867291007717254 0 0  1.886622833871288 0 0  1.90613418642363 0 0  1.925826753299799 0 0  1.945702199101513 0 0  1.96576223584749 0 0  1.986008569283268 0 0  2.006442931928877 0 0  2.02706707547783 0 0  2.047882750887917 0 0  2.06889175187935 0 0  2.090095860038271 0 0  2.111496891648636 0 0  2.133096679109554 0 0  2.154897066851056 0 0  2.176899916687499 0 0  2.199107102752146 0 0  2.22152053937028 0 0  2.244142122958061 0 0  2.266973806444078 0 0  2.290017523268154 0 0  2.313275249499252 0 0  2.336748971745516 0 0  2.360440702338606 0 0  2.384352453384031 0 0  2.408486280477412 0 0  2.432844240041185 0 0  2.457428414757088 0 0  2.482240901796653 0 0  2.507283830121838 0 0  2.532559332080812 0 0  2.558069568787417 0 0  2.583816724966441 0 0  2.60980299606584 0 0  2.636030600971886 0 0  2.662501790984011 0 0  2.689218818279327 0 0  2.716183964547616 0 0  2.743399548861297 0 0  2.77086788244719 0 0  2.798591312896326 0 0  2.826572223178268 0 0  2.854812990138617 0 0  2.883316031690714 0 0  2.912083780657189 0 0  2.941118704633482 0 0  2.970423276998917 0 0  3 0.02999999999994495 0  3 0.05999999999987042 0  3 0.089999999999783 0  3 0.119999999999701 0  3 0.149999999999619 0  3 0.179999999999692 0  3 0.2099999999997737 0  3 0.2399999999998511 0  3 0.2699999999999185 0  2.970138294777171 0.3 0  2.940375666438236 0.3 0  2.910711782853056 0.3 0  2.881146331305122 0.3 0  2.851678975030285 0.3 0  2.822309388626621 0.3 0  2.793037250095074 0.3 0  2.76386223529133 0.3 0  2.734784017903872 0.3 0  2.705802289276642 0.3 0  2.676916713794697 0.3 0  2.648126987654635 0.3 0  2.619432780406184 0.3 0  2.590833779385199 0.3 0  2.562329669847737 0.3 0  2.533920134950189 0.3 0  2.505604855727852 0.3 0  2.477383539822502 0.3 0  2.449255847639465 0.3 0  2.421221492569094 0.3 0  2.393280152486815 0.3 0  2.36543151914496 0.3 0  2.337675285481809 0.3 0  2.310011142385583 0.3 0  2.282438797441587 0.3 0  2.254957931061538 0.3 0  2.227568248063605 0.3 0  2.200269436651085 0.3 0  2.173061204949961 0.3 0  2.145943251515011 0.3 0  2.118915272469994 0.3 0  2.091976978084957 0.3 0  2.065128060700849 0.3 0  2.038368218849433 0.3 0  2.01169717777258 0.3 0  1.985114624111908 0.3 0  1.958620267850966 0.3 0  1.93221382054972 0.3 0  1.905894991850698 0.3 0  1.879663489459713 0.3 0  1.853519019126419 0.3 0  1.827461291053897 0.3 0  1.801490031354372 0.3 0  1.775604937580312 0.3 0  1.74980572560258 0.3 0  1.724092118631866 0.3 0  1.698463829173586 0.3 0  1.672920575782554 0.3 0  1.647462076974085 0.3 0  1.622088043536933 0.3 0  1.5967981978949 0.3 0  1.571592267767068 0.3 0  1.546469970305736 0.3 0  1.521431023814044 0.3 0  1.496475156230927 0.3 0  1.471602093687753 0.3 0  1.446811560490646 0.3 0  1.422103279101731 0.3 0  1.397476971708191 0.3 0  1.37293238939876 0.3 0  1.348469231419202 0.3 0  1.324087248732772 0.3 0  1.299786165921677 0.3 0  1.275565710847046 0.3 0  1.251425617644257 0.3 0  1.227365618676339 0.3 0  1.203385446174014 0.3 0  1.179484853067473 0.3 0  1.155663548773374 0.3 0  1.131921292279077 0.3 0  1.108257802159295 0.3 0  1.084672829009693 0.3 0  1.061166115303374 0.3 0  1.037737392995421 0.3 0  1.01438640299116 0.3 0  0.991112899770314 0.3 0  0.9679166155523955 0.3 0  0.944797284182564 0.3 0  0.921754678526042 0.3 0  0.8987885143602501 0.3 0  0.8758985548820624 0.3 0  0.8530845484099929 0.3 0  0.8303462351786988 0.3 0  0.8076833651172373 0.3 0  0.7850956864865304 0.3 0  0.7625829601354557 0.3 0  0.7401449314598274 0.3 0  0.717781337993959 0.3 0  0.6954919649675473 0.3 0  0.6732765357561226 0.3 0  0.6511348120768439 0.3 0  0.6290665642016573 0.3 0  0.6070715355430467 0.3 0  0.5851494825775325 0.3 0  0.5633001690203812 0.3 0  0.5415233562273221 0.3 0  0.5198187909431873 0.3 0  0.4981862401387795 0.3 0  0.4766254686134248 0.3 0  0.4551362360485234 0.3 0  0.4337182975262159 0.3 0  0.4123714223228037 0.3 0  0.3910953802377493 0.3 0  0.3698899313205595 0.3 0  0.3487548463710963 0.3 0  0.3276898864081783 0.3 0  0.3066948129116018 0.3 0  0.2857694003037476 0.3 0  0.2649134227095047 0.3 0  0.2441266417321288 0.3 0  0.2234088223399122 0.3 0  0.2027597568977288 0.3 0  0.1821792020676698 0.3 0  0.1616669305402443 0.3 0  0.1412227158799362 0.3 0  0.12084633013886 0.3 0  0.1005375673448281 0.3 0  0.08029618164595353 0.3 0  0.06012194778526769 0.3 0  0.04001466495039718 0.3 0  0.01997408913631205 0.3 0  0 0.2800000000000553 0  0 0.2600000000001105 0  0 0.2400000000001658 0  0 0.2200000000002211 0  0 0.2000000000002764 0  0 0.1800000000002244 0  0 0.1600000000001691 0  0 0.140000000000115 0  0 0.1200000000000564 0  1.133778471000506 0.01219539743990768 0  1.003741919047894 0.09354664821474232 0  0.9559421147150347 0.1035858189992458 0  0.9313792160389045 0.1037365237938103 0  0.9788461538460573 0.1033060829993555 0  0.9090102438250753 0.1037269304984056 0  0.8846304212778655 0.1043349840723655 0  0.8581503885465881 0.104741932962923 0  0.8286416220145676 0.1052762843984476 0  0.7982741772533339 0.1053575624517407 0  0.7708789559342691 0.1060290465840416 0  0.741870349714261 0.1078220590984258 0  0.7112469360040695 0.10685702926368 0  0.6783901541417233 0.1079959711853378 0  0.642884733623195 0.1075561996086514 0  0.6056235042367955 0.1085956039602543 0  0.5647007593786924 0.1083187281660325 0  1.1953125 0.01353164693413185 0  1.258148737344733 0.01268350115427042 0  1.320087046516829 0.01426312402966312 0  1.383495130751951 0.01432665475473204 0  1.4453125 0.01315663539200989 0  1.50886768312388 0.01395488397722681 0  0.9942307692307371 0.103330866937657 0  1.119309781943483 0.2802014914557878 0  1.572831235329714 0.01707210522554785 0  1.637611634353954 0.01209340368483431 0  1.709661292005932 0.0146870244871893 0  1.006561890631532 0.07068055446055937 0  1.784793444007901 0.01499371444634687 0  1.855459587353174 0.0
[...]
<PointData  Scalars="pressure"> 
<DataArray  type="Float64"  Name="pressure"  format="ascii">1.8592587340690797e-01  -1.6838942835550344e-01  -6.0737125906079756e-02  -3.7882808488049566e-03  9.7619375135918104e-02  0.0000000000000000e+00  0.0000000000000000e+00  1.8595151147531383e-01  1.8000316123536172e-01  1.7417863471335868e-01  1.6845057650298717e-01  1.6281733699401740e-01  1.5727724110489902e-01  1.5182874165569427e-01  1.4647022770751386e-01  1.4120009541592846e-01  1.3601690929826588e-01  1.3091897020055307e-01  1.2590479635214727e-01  1.2097297641346659e-01  1.1612189551305152e-01  1.1135014244243405e-01  1.0665614130743427e-01  1.0203849364561965e-01  9.7495594243507996e-02  9.3026115974605847e-02  8.8628429900118016e-02  8.4301228115604296e-02  8.0042737094274063e-02  7.5851682959334879e-02  7.1726974416636502e-02  6.7666307616936969e-02  6.3668651671709778e-02  5.9732273472344055e-02  5.5855955828455046e-02  5.2037875071546759e-02  4.8276528420567379e-02  4.4570395320658721e-02  4.0917852945661186e-02  3.7317867521187723e-02  3.3767691608617721e-02  3.0266351052743549e-02  2.6812289236372355e-02  2.3403753433005908e-02  2.0038773897341690e-02  1.6716026079227859e-02  1.3433517753505667e-02  1.0189720073275369e-02  6.9824797585695585e-03  3.8102610180324233e-03  6.7127037798077099e-04  -2.4362362016563800e-03  -5.5144209679551213e-03  -8.5647324369858210e-03  -1.1589619695566485e-02  -1.4590506452447798e-02  -1.7569460717585719e-02  -2.0529029689354855e-02  -2.3470143184644510e-02  -2.6395649678241127e-02  -2.9308001967139560e-02  -3.2206842537155576e-02  -3.5096431117729393e-02  -3.7978569013645977e-02  -4.0854392873482359e-02  -4.3728996982325199e-02  -4.6600528778133032e-02  -4.9471401434283635e-02  -5.2346789381452936e-02  -5.5227289174883586e-02  -5.8117056628344849e-02  -6.1014643059247059e-02  -6.3922750026189273e-02  -6.6848189961446397e-02  -6.9790085396978327e-02  -7.2751944463788285e-02  -7.5736252607671445e-02  -7.8746083899045624e-02  -8.1783426657953698e-02  -8.4852684152525365e-02  -8.7954747618695608e-02  -9.1093686310772998e-02  -9.4275628113748344e-02  -9.7502635543706181e-02  -1.0077759738281072e-01  -1.0410748754164306e-01  -1.0749581288552981e-01  -1.1094750320993027e-01  -1.1446803177879665e-01  -1.1807220458656781e-01  -1.2175853075922796e-01  -1.2553990743094148e-01  -1.2942412767761013e-01  -1.3343798016109060e-01  -1.3757272508787202e-01  -1.4178554463422083e-01  -1.4705940780902044e-01  -1.4690697520004101e-01  -1.7539855343544006e-01  -1.3552617024548566e-01  -1.7103347002815200e-01  -1.7040226602001526e-01  -1.8060117839527720e-01  -1.9107459071301552e-01  -2.1844695339530584e-01  -2.2322688562198190e-01  -2.1825681478779052e-01  -2.0426085076804876e-01  -1.8448190400609465e-01  -1.6092248872800827e-01  -1.3577464642871045e-01  -1.1044224422159735e-01  -8.6222019693226931e-02  -6.6251579680944112e-02  -3.6500228135061576e-02  -6.0620142329156919e-02  -3.4054892707185432e-02  -2.5111550468217492e-02  -1.8411873997687449e-02  -1.3861510543117055e-02  -1.0388767745877221e-02  -7.6605432622786533e-03  -5.6171880474309632e-03  -4.2124325393825008e-03  -3.4699915683865834e-03  -3.4886343930184815e-03  -4.1565490987067891e-03  -3.9943743303309234e-03  -2.9360270734547504e-03  -1.1793114157030884e-03  1.0859027968940743e-03  3.6290339929739468e-03  6.2499396149858161e-03  8.7813444005446443e-03  1.1009143602629336e-02  1.2760918466048926e-02  1.3893209822891947e-02  1.4316075773889153e-02  1.3986284109077120e-02  1.2905359422750453e-02  1.1143979922251584e-02  8.8720732848319977e-03  6.3260403138902920e-03  3.7477490802223360e-03  1.4864309022155889e-03  1.4329105139493259e-04  -3.5032458581498246e-04  8.9548357990029703e-04  3.8435596659322393e-03  8.7805306005849827e-03  1.5707708373896529e-02  2.4687326491576532e-02  3.5316506871672926e-02  4.7236537655907046e-02  5.9950847598025873e-02  7.2937568394564903e-02  8.5654381006977726e-02  1.0860317568661357e-01  1.1811057458974626e-01  1.2592050574789385e-01  1.3178160921603252e-01  1.3581495795424925e-01  1.3797118606119865e-01  1.3839617798980858e-01  1.3725153894103639e-01  1.3460946203453880e-01  1.3076576305005194e-01  1.2593809121184699e-01  1.2031993751923557e-01  1.1409249545546775e-01  1.0752140855567018e-01  1.0083768360213355e-01  9.4343981913028591e-02  8.8353708621978000e-02  8.3329704674108940e-02  7.9323874693633181e-02  7.6885050978059546e-02  7.6064562595824975e-02  7.6891659242866214e-02  7.9287880760361307e-02  8.2963246509285993e-02  8.7522306456361873e-02  9.2543463281465732e-02  9.7379855661649736e-02  1.0174180151596059e-01  1.0516354878434529e-01  1.0735546493595291e-01  1.0818470514110574e-01  1.0763490351634318e-01  1.0578125152844592e-01  1.0276207565984503e-01  9.8705309197160529e-02  9.3826033772763204e-02  8.8259265699770717e-02  8.2171364182065332e-02  7.5662653356476886e-02  6.8904536172304034e-02  6.2117876082200901e-02  5.5629463585693151e-02  4.9854597470454787e-02  4.5277786765383694e-02  4.2326079021908943e-02  4.1302685907305736e-02  4.2279307406697629e-02  4.5016011175330259e-02  4.8993936333864015e-02  5.3517009732891273e-02  5.7983947153713043e-02  6.1353508972657039e-02  6.3402807970618869e-02  6.3630486214733967e-02  6.1900246321527234e-02  5.8309495336867245e-02  5.3298087379649813e-02  4.6793439594679111e-02  3.9466999609497719e-02  3.1508390171367348e-02  2.3310955668439427e-02  1.5100448216449834e-02  7.7603112460931031e-03  1.6259788284418329e-03  -2.2986405918295760e-03  -3.9310621116436500e-03  -2.6735384671944542e-03  0.0000000000000000e+00  0.0000000000000000e+00  0.0000000000000000e+00  0.0000000000000000e+00  0.0000000000000000e+00  0.0000000000000000e+00  0.0000000000000000e+00  0.0000000000000000e+00  0.0000000000000000e+00  9.0549829111951103e-03  1.6258917510199644e-02  2.1525359245943843e-02  2.4379024970915056e-02  2.4826172033457668e-02  2.3277663179276747e-02  2.0385101629597523e-02  1.7089164942693708e-02  1.4480395342182919e-02  1.3581606169104806e-02  1.5134340298437217e-02  1.9437533764523316e-02  2.6287619100348953e-02  3.5076795465544194e-02  4.4971733378867028e-02  5.5147735507412837e-02  6.4945075481608633e-02  7.3862340626226791e-02  8.1570208363539343e-02  8.7735112898744000e-02  9.2001011392137066e-02  9.3969561262260581e-02  9.3317981640418907e-02  8.9937675177824652e-02  8.3995840447943365e-02  7.6195333179732164e-02  6.7588531791508560e-02  5.9460118607335764e-02  5.3232892601769818e-02  4.9951244998272255e-02  5.0238592150466797e-02  5.3914320164832365e-02  6.0615505325786856e-02  6.8972125875759294e-02  7.8351792448640836e-02  8.7644640887973788e-02  9.6033722786260739e-02  1.0305132048623164e-01  1.0828312640381972e-01  1.1172200162276186e-01  1.1294077727249190e-01  1.1180923881455215e-01  1.0825891574819427e-01  1.0223004242874517e-01  9.3926071955142978e-02  8.3840465979557507e-02  7.2778741997728311e-02  6.1742430975838196e-02  5.1686009494320360e-02  4.3557297910667446e-02  3.7972631073737946e-02  3.5026394461986000e-02  3.4570142788563893e-02  3.5640910389563185e-02  3.7772854722824045e-02  4.0096948235002809e-02  4.2047154882929774e-02  4.3203136772190551e-02  4.3378120997469072e-02  4.2483177148331663e-02  4.0534651859176964e-02  3.7516226409941414e-02  3.3609537878288243e-02  2.8832292523049016e-02  2.3327942485584105e-02  1.7249677025055067e-02  1.0755970587443967e-02  4.0228363779546078e-03  -2.7874734692946756e-03  -9.5500819525707742e-03  -1.6073441462763800e-02  -2.2357457916121228e-02  -2.8265675383812180e-02  -3.3700442007975333e-02  -3.8428806713565057e-02  -4.2550582749203751e-02  -4.5715544072118017e-02  -4.7972989044356429e-02  -4.9452339858233225e-02  -4.9592030142454391e-02  -4.8769527645214326e-02  -4.6994421929452024e-02  -4.4473806503435485e-02  -4.1234170400735237e-02  -3.7342229698020937e-02  -3.2916447632352235e-02  -2.8107357518801959e-02  -2.2962027564300571e-02  -1.7507179443870514e-02  -1.1859973697917050e-02  -6.0256975237478611e-03  -6.5076379198178024e-05  6.0004160260487393e-03  1.2151894106617957e-02  1.8367745777046144e-02  2.4623027739955401e-02  3.0912908900628203e-02  3.7225860419926537e-02  4.3552243810980482e-02  4.9882798159913935e-02  5.6213474383361300e-02  6.2543430248976850e-02  6.8865427934799314e-02  7.5178415241000843e-02  8.1479048408802504e-02  8.7766834822543174e-02  9.4040111427098630e-02  1.0029646983658906e-01  1.0653705501375350e-01  1.1275926903722280e-01  1.1896388508292248e-01  1.2515000798183062e-01  1.3131708345297433e-01  1.3746538248790519e-01  1.4359435607692378e-01  1.4970397546153236e-01  1.5579414336642880e-01  1.6186479125948250e-01  1.6791589012475766e-01  1.7394740268377148e-01  1.7995928649540441e-01  1.8595143964054595e-01  1.8595038192665217e-01  1.8594774807482217e-01  1.8594366458255140e-01  1.8593869847674366e-01  1.8593374027185336e-01  1.8592964159848241e-01  1.8592702791879492e-01  1.8592596550728832e-01  1.0089929165772751e-02  -3.6973804167697619e-02  -2.1317136113553503e-01  -1.5699773445333959e-01  -1.4330640187381430e-01  -1.3599572806820187e-01  -1.1660387627767191e-01  -9.9382065411517409e-02  -8.3138809971941854e-02  -6.8556901528498568e-02  -5.6718157360590736e-02  -4.5157175048904798e-02  -3.3714545614847144e-02  -2.2110796517767348e-02  -1.0108581477288030e-02  2.0531837977041212e-03  1.5066338149844075e-02  1.4450293445613950e-02  8.1279254137146852e-03  2.4231462768183859e-04  1.1989808340685837e-02  5.2393935847587350e-02  1.0256166680218942e-01  -5.2538337183665532e-02  -1.2492316763203240e-02  1.3314979049951517e-01  1.3612343613272257e-01  1.1760815829508317e-01  -1.2690202106843273e-02  9.0925848810998966e-02  7.6305148490216135e-02  2.8420663954436824e-02  8.4474860245505795e-02  1.4476356361941880e-02  3.6390376126551188e-02  1.0363172367315696e-01  4.4095062285425868e-02  4.2949855663367641e-02  3.5542893666414985e-02  1.0698828396067876e-01  5.7123580051569797e-02  2.6039780435286614e-03  9.1471962166196227e-02  5.5776347044114827e-02  -3.0052168530978668e-02  7.3324904241662228e-02  6.6000976905969025e-02  1.1014405227059475e-01  9.1122559767781150e-02  1.1062978336314197e-01  4.3567197966147497e-02  9.2066669110515351e-02  -4.5893852217312028e-02  4.6677431276128022e-02  1.0900227066590171e-01  6.4919264038211383e-02  -4.8744353588305971e-02  -4.2369842618691152e-02  4.9116188716557832e-02  6.2254106857951991e-02  1.2890914407331922e-01  1.4371728298924699e-01  8.8374073904318298e-02  6.0627918667406348e-02  4.2919718477133377e-02  -2.5727247005904692e-02  6.2555398261915640e-02  9.1776692532873391e-02  -8.6922477830245534e-03  -1.7581330855159294e-01  -2.0880922142217925e-01  8.9248584869510757e-03  9.0314464543824205e-02  1.9946548503160147e-02  3.3216349995905198e-02  6.0773468270115941e-02  6.5532171035526554e-02  3.0860569300667343e-02  9.7169349193940574e-02  1.3450491353738362e-02  1.1576047170426286e-01  1.5261862638908430e-01  1.3453666632214956e-01  1.7913130466606014e-02  1.8089441888639854e-01  4.2262887744326958e-03  1.6023683591543139e-01  -5.3847790050483490e-03  2.4710114405860302e-02  -1.0286278301988084e-03  -2.0752440403268402e-02  -1.8567564489538309e-03  -3.9271601502713874e-02  8.7258792339968189e-04  -3.5156384088672742e-02  2.1547210960737414e-02  4.6417200073899101e-02  7.9066442993602215e-02  3.6175426415718699e-02  4.1831590174847680e-02  4.2444662419939598e-02  2.6658249421261038e-02  1.1854679860358801e-01  9.9847198332809292e-02  7.9348947401476994e-02  7.8383122568550817e-02  8.2635946992170473e-02  5.4886405370524756e-02  1.6479372963644640e-01  4.1211088909173917e-02  5.2983751381710312e-02  6.5357857683880319e-02  7.9413080627589103e-02  1.8086842925352078e-01  1.0115317328413601e-01  5.0252622886180362e-02  1.0750252510735013e-01  9.4878801233810400e-02  1.2107752572487257e-01  7.7261721765940053e-02  3.5398717094485367e-02  8.1307176383753246e-02  1.0453973535391896e-01  1.2872483241147539e-01  2.1594346892047315e-02  1.3785605927642716e-01  -3.3251467869544640e-03  8.5691440280243839e-03  -4.0426379735683310e-03  -1.6373841022894572e-02  -2.7569974892820131e-02  -3.9678891245867084e-02  -5.1013491499162338e-02  -6.2876829531657630e-02  -7.7392155240143576e-02  1.3537991506204558e-02  -9.2887816848683427e-02  -1.0962158839540423e-01  -1.2791237679702497e-01  1.2494215083295417e-02  -1.4937680771551543e-01  2.1464552077156015e-03  3.0311207891663052e-03  2.7483371589472477e-02  7.8040262388947845e-02  1.8128307582975919e-01  -9.2771395925109232e-02  9.7721129478080086e-03  1.7127590659343922e-01  1.9673546415179183e-02  -3.7349667666151461e-03  -3.6812496405850006e-03  1.8142786820842147e-01  -3.1124660018359137e-03  -2.6683893704907147e-03  -1.3644633898642646e-03  -2.5914274557266833e-03  -1.1925520992925292e-03  -2.6965607372878529e-03  -9.7338355062520860e-04  -2.7198149427532818e-03  -6.2320897674076703e-04  -2.3372932545246941e-03  2.0701981727035574e-04  -1.2838714066170662e-03  1.7546834769934633e-03  4.8636256788098795e-04  3.9077974528387059e-03  2.5653006732729894e-03  6.3083990480344221e-03  4.3735076791361020e-03  8.0571274698786888e-03  5.0037635329595875e-03  8.7536858446018249e-03  8.2772785223468104e-04  1.2154871779520437e-02  1.2421411750762987e-02  5.6465841040741704e-04  -4.2065545020576606e-03  1.5782096758778799e-02  1.5671826142208117e-02  1.8729885233053467e-02  1.8186334492229207e-02  2.1077070893100056e-02  1.9864557635243574e-02  2.2227564825206544e-02  2.0533608516648420e-02  2.2160149469235623e-02  1.9781658848879270e-02  2.0540449367909934e-02  1.8452537136075288e-02  1.7712938466131332e-02  1.6158941974522709e-02  1.3878356163727479e-02  1.3501436522095896e-02  9.5750519656516899e-03  1.0617538107491177e-02  5.4959139723914884e-03  8.4651272566075696e-03  2.3498080894646454e-03  7.7933255917666611e-03  9.5985049135240228e-04  8.6409810844616242e-03  2.3760728948021529e-03  -5.0846292515217828e-03  -1.0600073140006777e-02  1.1357075343889736e-02  5.0832232315824073e-03  1.5741932269721148e-02  1.2238252678355767e-02  2.2147216854085511e-02  2.0331568555490478e-02  2.9545061106839542e-02  3.0288874068596292e-02  3.7333504869159935e-02  4.1037559478507631e-02  1.1158526670890205e-02  4.4819188466028614e-02  5.1692521224686018e-02  5.1534420478647078e-02  6.1344777111956357e-02  5.6902394916947631e-02  6.9490697163339138e-02  -1.1545645216877450e-02  -1.7799108659825917e-02  -2.7842607015704786e-03  6.1006470591734044e-02  7.5966399619548583e-02  -1.0510674104121310e-02  6.4373521316065482e-02  8.0859682113776810e-02  6.6516727612364504e-02  8.4269966256641057e-02  6.8580891050583348e-02  8.6683858570993713e-02  1.7911250622458394e-02  6.9715595028245300e-02  8.8273125679470696e-02  7.2810303561009995e-02  8.9890462957583128e-02  7.6012476917951793e-02  9.1237037139370369e-02  5.2389968087631789e-03  1.7411397064271840e-02  7.9871891133731596e-02  9.2593117842371189e-02  -1.8240557984484818e-02  -2.5710147887580970e-02  -1.2357636522226810e-02  1.4620283913070044e-02  8.3337308429452195e-02  9.3977292009737950e-02  8.7963034804476800e-02  9.5206302295656214e-02  9.2533005547434155e-02  9.6147517060809554e-02  8.4689046120698830e-02  1.0332904864699911e-01  1.0280685604116888e-01  4.8432986106156921e-02  9.6741963274574280e-02  9.7027357230525038e-02  9.6335541299882740e-02  9.4132244418255573e-02  9.7681921030323887e-02  9.2269987426877920e-02  9.8138700263173145e-02  9.0854430138195968e-02  9.8482708087387211e-02  9.0226377351920933e-02  9.8720306252515225e-02  9.0136240182450353e-02  9.8610195126346001e-02  9.0516870560138338e-02  9.8257326472451070e-02  9.1008898436884506e-02  9.6979343881767321e-02  9.0986083895880462e-02  9.4753373874620225e-02  9.0571857895772517e-02  9.1459961268267720e-02  8.9183287688115620e-02  8.6842317987484180e-02  8.6622828516734932e-02  1.1839246458302814e-02  1.8385255483168224e-02  8.1120696816974813e-02  8.3065968840961527e-02  7.4876495419998829e-02  7.8721243363210278e-02  2.2597550954723114e-02  6.8480043376296873e-02  7.4341595523879256e-02  6.1527139352478147e-04  1.5958087686646798e-02  -2.4675649084972780e-02  -3.2260680555593391e-02  -3.5612381304787118e-02  -4.1361463602075307e-02  -4.6719505585996003e-02  -5.1835178213868557e-02  -5.9046682881796778e-02  -6.2812317963154632e-02  -7.2648388759736088e-02  -7.3568318738351887e-02  -8.5913243302028472e-02  -8.3252428949644755e-02  -9.7796112326329232e-02  -9.2022053001166018e-02  -1.0937966612455463e-01  -9.9993726590763832e-02  -1.1328836379151876e-01  -1.0235146921719254e-01  -1.1549590442256000e-01  -1.0594915188509264e-01  -1.1569263082040099e-01  -1.0589152211090846e-01  -1.1385197187099698e-01  -1.0432847440875941e-01  -1.1068818955260638e-01  -1.0175013121142888e-01  -1.0676658327635918e-01  -9.8443265269726965e-02  -9.6541871743177202e-02  -9.2951010597677658e-02  -9.0178067979144544e-02  -9.4662477472083437e-02  -8.7038759205720101e-02  -9.0577635007673130e-02  -8.3568775872616921e-02  -8.6464007958943129e-02  -7.9922891598692203e-02  -7.9848548829228885e-02  -8.3090881686373949e-02  -7.6187821939506795e-02  -7.7796869208980324e-02  -7.2068044995976827e-02  -6.9978030856506404e-02  -6.6347090441406645e-02  -6.7945475996738142e-02  -6.2641642319658589e-02  -6.3628037985588970e-02  -5.8798325739979930e-02  -5.1796381232165657e-02  -5.9345174346341380e-02  -5.4873808462278108e-02  -5.3776231494777116e-02  -5.0157548187865449e-02  -5.0974447775548354e-02  -4.6467155643222811e-02  -4.7039517149041477e-02  -4.2722164646393411e-02  -1.1386536680513384e-01  -8.7740538398278542e-02  -8.4421467072095732e-02  -1.2547542793962593e-01  -4.3115779392659655e-02  -3.8909778240789311e-02  -3.8406033783412605e-02  -3.4699231153595869e-02  -3.5023656892439976e-02  -3.0948843604336237e-02  -3.1061507379226552e-02  -2.7111325720882137e-02  -2.6915167899794271e-02  -2.3204068338027375e-02  -2.3170776348089034e-02  -1.9388430240303865e-02  -6.4081518175349433e-02  -1.9176635627103502e-02  -1.5545943732413376e-02  -1.2388726207309135e-01  -6.2278537620043310e-02  -4.8930008503356770e-02  -1.1510021261642273e-01  -1.5220871930369154e-02  -1.1562597209193356e-02  -1.2107592794092813e-02  -7.9313703459775228e-03  -7.6369664859347163e-03  -3.8972526118859524e-03  -4.1827462175754501e-03  -1.8977848749685832e-04  1.6073100715365481e-04  3.8236736149617114e-03  -9.2993930984457532e-02  4.2282537873023530e-03  7.9266021822578248e-03  -2.2792949989324338e-02  -6.7623753242577189e-02  3.1528803938838668e-02  -8.3094012372620624e-02  7.5078809657832309e-03  1.1603459916569390e-02  1.2057642973618422e-02  1.5712544866196287e-02  6.2476389070562306e-02  7.0120063638137275e-02  5.7927474801628159e-02  6.6989392124891717e-02  5.5378734665467347e-02  6.5129116142022478e-02  1.6364438073667713e-02  1.9951807912083598e-02  4.9978700441807057e-02  1.9412125758815929e-02  2.3609064852694806e-02  2.4049553879946371e-02  2.7791842680225404e-02  -4.4501279626312958e-03  -3.9079790336495404e-02  -5.1360017498992411e-02  8.2036667546310574e-02  5.5065404113697605e-02  6.4764453574884626e-02  9.4068347214771239e-02  9.0143990011486083e-02  7.5880956796163204e-02  7.4176989169037241e-02  6.5628882187669726e-02  7.2938702174075290e-02  6.7439993434172396e-02  7.1788767579324758e-02  6.9517653564992815e-02  7.0458712000360399e-02  7.1411258363144423e-02  6.8819230632460759e-02  7.2751773139385481e-02  6.6859564640941005e-02  7.3505068336681870e-02  6.4763676024597941e-02  7.3506959788113807e-02  6.2784379020574169e-02  7.2752820936214019e-02  6.1098411925793350e-02  7.1315376911638959e-02  5.9859728706759811e-02  6.9676197451107355e-02  5.9038622220232262e-02  6.7570382291658349e-02  5.8337345070102166e-02  2.8267934566747959e-02  3.2015045306374182e-02  3.1793825331257561e-02  3.5875698974997587e-02  3.6317085419097422e-02  4.0120941057906902e-02  6.4551929751896456e-02  5.7260416722232525e-02  6.0178247546058404e-02  5.5469079255948392e-02  5.4990539522458040e-02  5.2454452079987564e-02  8.3861164069449226e-02  3.9360273686867675e-02  4.3