<?xml version="1.0"?>
<VTKFile type="UnstructuredGrid"  version="0.1"  >
<UnstructuredGrid>
<Piece  NumberOfPoints="2945" NumberOfCells="5525">
<Points>
<DataArray  type="Float64"  NumberOfComponents="3"  format="ascii">0 0.1 0  0.95 0.1 0  1 0.1 0  1 0 0  1.5 0 0  3 0 0  3 0.3 0  0 0.3 0  0.0197424558707114 0.1 0  0.03915669042224804 0.1 0  0.05824816022699029 0.1 0  0.07702223050332387 0.1 0  0.09548417327144595 0.1 0  0.1136391897583987 0.1 0  0.1314923700144587 0.1 0  0.1490487330862866 0.1 0  0.1663132263225292 0.1 0  0.1832906857273058 0.1 0  0.1999858946008978 0.1 0  0.216403545770297 0.1 0  0.2325482404045023 0.1 0  0.2484245348165176 0.1 0  0.2640368740372501 0.1 0  0.2793896589642241 0.1 0  0.2944872056237027 0.1 0  0.3093337469555254 0.1 0  0.3239334613687816 0.1 0  0.3382904528528069 0.1 0  0.3524087553122972 0.1 0  0.3662923366391824 0.1 0  0.3799451014768399 0.1 0  0.393370886920506 0.1 0  0.4065734648871676 0.1 0  0.419556546320114 0.1 0  0.4323237821343415 0.1 0  0.4448787573056132 0.1 0  0.4572250047274954 0.1 0  0.4693659926332938 0.1 0  0.4813051343276231 0.1 0  0.4930457849308193 0.1 0  0.5045912455271677 0.1 0  0.5159447600209797 0.1 0  0.5271095174127136 0.1 0  0.5380886618453393 0.1 0  0.5488852725463512 0.1 0  0.5595023868312478 0.1 0  0.5699429904313016 0.1 0  0.5802100167387366 0.1 0  0.5903063508274641 0.1 0  0.6002348329443006 0.1 0  0.6099982499579832 0.1 0  0.6195993483501782 0.1 0  0.6290408246013842 0.1 0  0.6383253354321616 0.1 0  0.6474554910757137 0.1 0  0.6564338522440513 0.1 0  0.6652629482939147 0.1 0  0.6739452579188948 0.1 0  0.6824832240165607 0.1 0  0.6908792415022103 0.1 0  0.6991356755989045 0.1 0  0.7072548438546967 0.1 0  0.7152390281534421 0.1 0  0.7230904746196039 0.1 0  0.7308113906759266 0.1 0  0.7384039435269326 0.1 0  0.7458702676581656 0.1 0  0.7532124631720397 0.1 0  0.7604325921167397 0.1 0  0.7675326856666862 0.1 0  0.7745147374421916 0.1 0  0.7813807123989068 0.1 0  0.7881325374362798 0.1 0  0.7947721131625659 0.1 0  0.8013013031866276 0.1 0  0.8077219449067021 0.1 0  0.8140358419942376 0.1 0  0.8202447685401882 0.1 0  0.8263504700910924 0.1 0  0.8323546643163114 0.1 0  0.8382590362474568 0.1 0  0.8440652473522128 0.1 0  0.8497749272799842 0.1 0  0.8553896837646281 0.1 0  0.8609110933285474 0.1 0  0.866340708855119 0.1 0  0.8716800550492284 0.1 0  0.8769306339052932 0.1 0  0.8820939206038667 0.1 0  0.8871713655604893 0.1 0  0.8921643975475726 0.1 0  0.8970744196575535 0.1 0  0.9019028106970642 0.1 0  0.9066509291259979 0.1 0  0.9113201098984042 0.1 0  0.9159116634553873 0.1 0  0.9204268818729691 0.1 0  0.9248670319440222 0.1 0  0.9292333656649013 0.1 0  0.9335271075812669 0.1 0  0.9377494640511216 0.1 0  0.941901623463222 0.1 0  0.9459847526686701 0.1 0  0.9538461538461205 0.1 0  0.9576923076922409 0.1 0  0.9615384615384381 0.1 0  0.9653846153846337 0.1 0  0.9692307692307542 0.1 0  0.9730769230768747 0.1 0  0.9769230769229952 0.1 0  0.9807692307691157 0.1 0  0.9846153846152361 0.1 0  0.9884615384614317 0.1 0  0.9923076923076356 0.1 0  0.9961538461538395 0.1 0  1 0.09591793123533533 0  1 0.09133596463859224 0  1 0.08619288104391448 0  1 0.08041996484521211 0  1 0.07394008421771697 0  1 0.06666666567302955 0  1 0.05850252932209174 0  1 0.04933859630113544 0  1 0.03905242821848202 0  1 0.02750659386753798 0  1 0.01454683679239736 0  1.015625 0 0  1.03125 0 0  1.046875 0 0  1.0625 0 0  1.078125 0 0  1.09375 0 0  1.109375 0 0  1.125 0 0  1.140625 0 0  1.15625 0 0  1.171875 0 0  1.1875 0 0  1.203125 0 0  1.21875 0 0  1.234375 0 0  1.25 0 0  1.265625 0 0  1.28125 0 0  1.296875 0 0  1.3125 0 0  1.328125 0 0  1.34375 0 0  1.359375 0 0  1.375 0 0  1.390625 0 0  1.40625 0 0  1.421875 0 0  1.4375 0 0  1.453125 0 0  1.46875 0 0  1.484375 0 0  1.515920751924515 0 0  1.531989369316721 0 0  1.54820720925872 0 0  1.564575665560501 0 0  1.581096138674279 0 0  1.597770029901263 0 0  1.614598783332311 0 0  1.631583831055205 0 0  1.64872661129721 0 0  1.666028606716533 0 0  1.683491276608443 0 0  1.701116134125304 0 0  1.718904673324128 0 0  1.736858414799339 0 0  1.754978895814663 0 0  1.773267661782904 0 0  1.791726281103402 0 0  1.810356325314689 0 0  1.8291593848892 0 0  1.848137076690385 0 0  1.867291007717254 0 0  1.886622833871288 0 0  1.90613418642363 0 0  1.925826753299799 0 0  1.945702199101513 0 0  1.96576223584749 0 0  1.986008569283268 0 0  2.006442931928877 0 0  2.02706707547783 0 0  2.047882750887917 0 0  2.06889175187935 0 0  2.090095860038271 0 0  2.111496891648636 0 0  2.133096679109554 0 0  2.154897066851056 0 0  2.176899916687499 0 0  2.199107102752146 0 0  2.22152053937028 0 0  2.244142122958061 0 0  2.266973806444078 0 0  2.290017523268154 0 0  2.313275249499252 0 0  2.336748971745516 0 0  2.360440702338606 0 0  2.384352453384031 0 0  2.408486280477412 0 0  2.432844240041185 0 0  2.457428414757088 0 0  2.482240901796653 0 0  2.507283830121838 0 0  2.532559332080812 0 0  2.558069568787417 0 0  2.583816724966441 0 0  2.60980299606584 0 0  2.636030600971886 0 0  2.662501790984011 0 0  2.689218818279327 0 0  2.716183964547616 0 0  2.743399548861297 0 0  2.77086788244719 0 0  2.798591312896326 0 0  2.826572223178268 0 0  2.854812990138617 0 0  2.883316031690714 0 0  2.912083780657189 0 0  2.941118704633482 0 0  2.970423276998917 0 0  3 0.02999999999994495 0  3 0.05999999999987042 0  3 0.089999999999783 0  3 0.119999999999701 0  3 0.149999999999619 0  3 0.179999999999692 0  3 0.2099999999997737 0  3 0.2399999999998511 0  3 0.2699999999999185 0  2.970138294777171 0.3 0  2.940375666438236 0.3 0  2.910711782853056 0.3 0  2.881146331305122 0.3 0  2.851678975030285 0.3 0  2.822309388626621 0.3 0  2.793037250095074 0.3 0  2.76386223529133 0.3 0  2.734784017903872 0.3 0  2.705802289276642 0.3 0  2.676916713794697 0.3 0  2.648126987654635 0.3 0  2.619432780406184 0.3 0  2.590833779385199 0.3 0  2.562329669847737 0.3 0  2.533920134950189 0.3 0  2.505604855727852 0.3 0  2.477383539822502 0.3 0  2.449255847639465 0.3 0  2.421221492569094 0.3 0  2.393280152486815 0.3 0  2.36543151914496 0.3 0  2.337675285481809 0.3 0  2.310011142385583 0.3 0  2.282438797441587 0.3 0  2.254957931061538 0.3 0  2.227568248063605 0.3 0  2.200269436651085 0.3 0  2.173061204949961 0.3 0  2.145943251515011 0.3 0  2.118915272469994 0.3 0  2.091976978084957 0.3 0  2.065128060700849 0.3 0  2.038368218849433 0.3 0  2.01169717777258 0.3 0  1.985114624111908 0.3 0  1.958620267850966 0.3 0  1.93221382054972 0.3 0  1.905894991850698 0.3 0  1.879663489459713 0.3 0  1.853519019126419 0.3 0  1.827461291053897 0.3 0  1.801490031354372 0.3 0  1.775604937580312 0.3 0  1.74980572560258 0.3 0  1.724092118631866 0.3 0  1.698463829173586 0.3 0  1.672920575782554 0.3 0  1.647462076974085 0.3 0  1.622088043536933 0.3 0  1.5967981978949 0.3 0  1.571592267767068 0.3 0  1.546469970305736 0.3 0  1.521431023814044 0.3 0  1.496475156230927 0.3 0  1.471602093687753 0.3 0  1.446811560490646 0.3 0  1.422103279101731 0.3 0  1.397476971708191 0.3 0  1.37293238939876 0.3 0  1.348469231419202 0.3 0  1.324087248732772 0.3 0  1.299786165921677 0.3 0  1.275565710847046 0.3 0  1.251425617644257 0.3 0  1.227365618676339 0.3 0  1.203385446174014 0.3 0  1.179484853067473 0.3 0  1.155663548773374 0.3 0  1.131921292279077 0.3 0  1.108257802159295 0.3 0  1.084672829009693 0.3 0  1.061166115303374 0.3 0  1.037737392995421 0.3 0  1.01438640299116 0.3 0  0.991112899770314 0.3 0  0.9679166155523955 0.3 0  0.944797284182564 0.3 0  0.921754678526042 0.3 0  0.8987885143602501 0.3 0  0.8758985548820624 0.3 0  0.8530845484099929 0.3 0  0.8303462351786988 0.3 0  0.8076833651172373 0.3 0  0.7850956864865304 0.3 0  0.7625829601354557 0.3 0  0.7401449314598274 0.3 0  0.717781337993959 0.3 0  0.6954919649675473 0.3 0  0.6732765357561226 0.3 0  0.6511348120768439 0.3 0  0.6290665642016573 0.3 0  0.6070715355430467 0.3 0  0.5851494825775325 0.3 0  0.5633001690203812 0.3 0  0.5415233562273221 0.3 0  0.5198187909431873 0.3 0  0.4981862401387795 0.3 0  0.4766254686134248 0.3 0  0.4551362360485234 0.3 0  0.4337182975262159 0.3 0  0.4123714223228037 0.3 0  0.3910953802377493 0.3 0  0.3698899313205595 0.3 0  0.3487548463710963 0.3 0  0.3276898864081783 0.3 0  0.3066948129116018 0.3 0  0.2857694003037476 0.3 0  0.2649134227095047 0.3 0  0.2441266417321288 0.3 0  0.2234088223399122 0.3 0  0.2027597568977288 0.3 0  0.1821792020676698 0.3 0  0.1616669305402443 0.3 0  0.1412227158799362 0.3 0  0.12084633013886 0.3 0  0.1005375673448281 0.3 0  0.08029618164595353 0.3 0  0.06012194778526769 0.3 0  0.04001466495039718 0.3 0  0.01997408913631205 0.3 0  0 0.2800000000000553 0  0 0.2600000000001105 0  0 0.2400000000001658 0  0 0.2200000000002211 0  0 0.2000000000002764 0  0 0.1800000000002244 0  0 0.1600000000001691 0  0 0.140000000000115 0  0 0.1200000000000564 0  1.133778471000506 0.01219539743990768 0  1.003741919047894 0.09354664821474232 0  0.9559421147150347 0.1035858189992458 0  0.9313792160389045 0.1037365237938103 0  0.9788461538460573 0.1033060829993555 0  0.9090102438250753 0.1037269304984056 0  0.8846304212778655 0.1043349840723655 0  0.8581503885465881 0.104741932962923 0  0.8286416220145676 0.1052762843984476 0  0.7982741772533339 0.1053575624517407 0  0.7708789559342691 0.1060290465840416 0  0.741870349714261 0.1078220590984258 0  0.7112469360040695 0.10685702926368 0  0.6783901541417233 0.1079959711853378 0  0.642884733623195 0.1075561996086514 0  0.6056235042367955 0.1085956039602543 0  0.5647007593786924 0.1083187281660325 0  1.1953125 0.01353164693413185 0  1.258148737344733 0.01268350115427042 0  1.320087046516829 0.01426312402966312 0  1.383495130751951 0.01432665475473204 0  1.4453125 0.01315663539200989 0  1.50886768312388 0.01395488397722681 0  0.9942307692307371 0.103330866937657 0  1.119309781943483 0.2802014914557878 0  1.572831235329714 0.01707210522554785 0  1.637611634353954 0.01209340368483431 0  1.709661292005932 0.0146870244871893 0  1.006561890631532 0.07068055446055937 0  1.784793444007901 0.01499371444634687 0  1.855459587353174 0.0
[...]
<PointData  Scalars="pressure"> 
<DataArray  type="Float64"  Name="pressure"  format="ascii">5.9623451970560834e-02  -3.0160019161289375e-01  -1.5396854876562149e-01  -1.1182110108767312e-01  3.7979636141718641e-02  0.0000000000000000e+00  0.0000000000000000e+00  5.9646324257714038e-02  5.3700736701081150e-02  4.7876235627625108e-02  4.2148240106810446e-02  3.6515104937078588e-02  3.0975165327834380e-02  2.5526872830364301e-02  2.0168626434615356e-02  1.4898831119753991e-02  9.7160470052903378e-03  4.6186008066864985e-03  -3.9498866318857673e-04  -5.3261327919850512e-03  -1.0176425289322810e-02  -1.4947277289321917e-02  -1.9640244497380381e-02  -2.4256723728056217e-02  -2.8798296887674244e-02  -3.3266293564003270e-02  -3.7662317748410987e-02  -4.1987679318445929e-02  -4.6244118615055854e-02  -5.0432920451270985e-02  -5.4555181358099461e-02  -5.8613143563316351e-02  -6.2607861242486906e-02  -6.6541057483830227e-02  -7.0413962264541954e-02  -7.4228317679475755e-02  -7.7985767104055498e-02  -8.1687658326587628e-02  -8.5335812632410218e-02  -8.8931094820912729e-02  -9.2476365277775002e-02  -9.5972579025019766e-02  -9.9421364606256515e-02  -1.0282444625047031e-01  -1.0618382628053376e-01  -1.0950092132134592e-01  -1.1277770142561552e-01  -1.1601582560980851e-01  -1.1921745490558219e-01  -1.2238418740108839e-01  -1.2551797640126366e-01  -1.2862056422220655e-01  -1.3169420015718153e-01  -1.3474052592584654e-01  -1.3776206139669001e-01  -1.4076034048768984e-01  -1.4373763449580679e-01  -1.4669633600480605e-01  -1.4963837048765091e-01  -1.5256528278774145e-01  -1.5548147327112094e-01  -1.5838545828643916e-01  -1.6128225437071711e-01  -1.6417372815146297e-01  -1.6706131085240672e-01  -1.6995003383902346e-01  -1.7283980891033737e-01  -1.7573085505141076e-01  -1.7862987036004743e-01  -1.8153847510469837e-01  -1.8446017987839666e-01  -1.8739501665369879e-01  -1.9034370355524735e-01  -1.9331578130841551e-01  -1.9630988346798520e-01  -1.9933012980222478e-01  -2.0237959174333112e-01  -2.0546137474934748e-01  -2.0857836597644591e-01  -2.1173572901521859e-01  -2.1493520022257562e-01  -2.1818062505676761e-01  -2.2147942187919906e-01  -2.2483535430898424e-01  -2.2825109559705681e-01  -2.3173485038181715e-01  -2.3529320030755299e-01  -2.3893051383490338e-01  -2.4265323875132983e-01  -2.4648094733594214e-01  -2.5041265131249268e-01  -2.5446432898712340e-01  -2.5864561808569630e-01  -2.6299019279760710e-01  -2.6749169076923485e-01  -2.7211271023920852e-01  -2.7785247292343379e-01  -2.7819180031255197e-01  -3.0746253299813220e-01  -2.6792914272759250e-01  -3.0446035367833651e-01  -3.0465475483568849e-01  -3.1655513420634940e-01  -3.3131833625364815e-01  -3.6400637789383644e-01  -3.7022893582637245e-01  -3.6452378742063601e-01  -3.4796433719469255e-01  -3.2452524399723709e-01  -2.9652465334778527e-01  -2.6655179564592840e-01  -2.3608663551067138e-01  -2.0663232997909117e-01  -1.8103657131006665e-01  -1.4783208137442216e-01  -1.5818433134729351e-01  -1.3470493528724251e-01  -1.2709332510001858e-01  -1.2148040538915299e-01  -1.1786372903275999e-01  -1.1528965543909482e-01  -1.1342669695047193e-01  -1.1219033768967308e-01  -1.1150851228814795e-01  -1.1133647892995993e-01  -1.1160732418667653e-01  -1.1207860514837832e-01  -1.1229391258474770e-01  -1.1211395978399487e-01  -1.1172479867499677e-01  -1.1133881064817239e-01  -1.1114513729154119e-01  -1.1127867686894791e-01  -1.1188012794124325e-01  -1.1300669062216875e-01  -1.1464394894080600e-01  -1.1675294053148280e-01  -1.1918845654981383e-01  -1.2171519379521259e-01  -1.2402487171307795e-01  -1.2574050153781036e-01  -1.2647749113113485e-01  -1.2577953634976949e-01  -1.2327506270446983e-01  -1.1869452511078145e-01  -1.1159994050751600e-01  -1.0236121239560833e-01  -9.0913960331497970e-02  -7.7603856026441501e-02  -6.3008785530115019e-02  -4.7509666639760126e-02  -3.2043924560630432e-02  -1.6835243345978624e-02  -2.6538070863673540e-03  1.0167670702368027e-02  2.1315668750666154e-02  3.0602367334304454e-02  4.3536452584726666e-02  4.7240332562049882e-02  4.9207967170381027e-02  4.9536788508200910e-02  4.8443463148455893e-02  4.6154303083582329e-02  4.2793041894526061e-02  3.8680079611603926e-02  3.3872997064991868e-02  2.8715051999537434e-02  2.3506028791241682e-02  1.8550623495389156e-02  1.4155484191265062e-02  1.0681465856726633e-02  8.4104663603031937e-03  7.5988524014180252e-03  8.3707197114405770e-03  1.0830086378428451e-02  1.4767363025486546e-02  1.9860085474471025e-02  2.5878712704400619e-02  3.2267493366507881e-02  3.8542640637592523e-02  4.4313995410738896e-02  4.9147293938668075e-02  5.2901254793300170e-02  5.5284620192299995e-02  5.6342224307582477e-02  5.6113698675429778e-02  5.4697413914473074e-02  5.2224505641153204e-02  4.8903420445612633e-02  4.4900852328848835e-02  4.0349121695793855e-02  3.5325828188120599e-02  2.9995777658476098e-02  2.4514107560522330e-02  1.9168526733553116e-02  1.4302903510855910e-02  1.0373691463364660e-02  7.8429455374016844e-03  7.1017652377761802e-03  8.3591900292165986e-03  1.1564822759372106e-02  1.6388536836539274e-02  2.2246239624450534e-02  2.8449257702040553e-02  3.4228331762256932e-02  3.8894979659542500e-02  4.1900087366716250e-02  4.3108307259880595e-02  4.2378771441176633e-02  3.9797194438236087e-02  3.5822677741694404e-02  3.0550890267773270e-02  2.4224517045538369e-02  1.7485690147409218e-02  1.0191341701583364e-02  3.0398457713268572e-03  -3.6254117921956748e-03  -9.1069093557694953e-03  -1.3076509096312526e-02  -1.4757610166828307e-02  -1.4444319480460609e-02  -1.1865336123378563e-02  -8.0627363816691538e-03  -3.2539826627489984e-03  0.0000000000000000e+00  0.0000000000000000e+00  0.0000000000000000e+00  0.0000000000000000e+00  0.0000000000000000e+00  0.0000000000000000e+00  0.0000000000000000e+00  0.0000000000000000e+00  0.0000000000000000e+00  6.6126786493495241e-03  1.3137813871920579e-02  1.8943103330750159e-02  2.3442435147316386e-02  2.6337239144860171e-02  2.7348152376937600e-02  2.6262776378747885e-02  2.3085118466772990e-02  1.8129666914229889e-02  1.2074577921178255e-02  5.8901811061291762e-03  7.0990677645543202e-04  -2.4160162277361203e-03  -2.7622033744691670e-03  -7.0306041669979073e-05  5.3823821885371839e-03  1.2887644459668744e-02  2.1530676914627168e-02  3.0433116074057371e-02  3.8881613916255872e-02  4.6392244322283741e-02  5.2597302944683406e-02  5.7167131213537031e-02  5.9717019712228162e-02  5.9829865561623896e-02  5.7197631594097853e-02  5.1641445370424928e-02  4.3382510739680184e-02  3.3122614096934053e-02  2.1964261944220215e-02  1.1331562725905549e-02  2.5899701411545824e-03  -3.1256728957970974e-03  -5.4377912109768913e-03  -3.5903845235162007e-03  7.5199956713372328e-04  7.4760888668026822e-03  1.4882263517621319e-02  2.2093040811493041e-02  2.8536804156519449e-02  3.3344336904003694e-02  3.6432346838394553e-02  3.7619397397389898e-02  3.6756252840085511e-02  3.3730801423273019e-02  2.8487593474665802e-02  2.1076284631873790e-02  1.1683440535870291e-02  7.0408175210733936e-04  -1.1181973224015250e-02  -2.3211166895948182e-02  -3.4479422009094839e-02  -4.4435277857294897e-02  -5.2514647496786512e-02  -5.8424452445691187e-02  -6.2406852101645247e-02  -6.4847665413239317e-02  -6.6303729075012655e-02  -6.7316413640377326e-02  -6.8402210201624916e-02  -6.9911496878066109e-02  -7.2131110797118217e-02  -7.5078129685656789e-02  -7.8897523753015453e-02  -8.3572611703911712e-02  -8.9071991859513103e-02  -9.5308419843645048e-02  -1.0217955436205947e-01  -1.0955871024574998e-01  -1.1731119251823621e-01  -1.2518120928238469e-01  -1.3315932266627009e-01  -1.4095639401278329e-01  -1.4838936528087160e-01  -1.5506354552999324e-01  -1.6108692130633773e-01  -1.6591305939118278e-01  -1.6968252789025715e-01  -1.7242088791181051e-01  -1.7350963028253327e-01  -1.7343995126207798e-01  -1.7222034328900152e-01  -1.7012025208841686e-01  -1.6717028871765380e-01  -1.6347416408337798e-01  -1.5917392801840050e-01  -1.5444978494623068e-01  -1.4935310919990741e-01  -1.4392363088590052e-01  -1.3828728337497623e-01  -1.3245340171845493e-01  -1.2648742575505262e-01  -1.2041269673298430e-01  -1.1425034668135818e-01  -1.0802322222082655e-01  -1.0175722032311793e-01  -9.5456720517620164e-02  -8.9134455335919904e-02  -8.2799729959374013e-02  -7.6461758801002561e-02  -7.0124492141155570e-02  -6.3789016904104587e-02  -5.7462235170994108e-02  -5.1145208378811674e-02  -4.4841125913252594e-02  -3.8550464783666270e-02  -3.2274838854299916e-02  -2.6016439429897328e-02  -1.9774257227264488e-02  -1.3550653683338097e-02  -7.3449434706221494e-03  -1.1579319094395402e-03  5.0098831638364580e-03  1.1158745271360227e-02  1.7288168191924885e-02  2.3398132179670961e-02  2.9488556241630038e-02  3.5559386999073656e-02  4.1610606085741374e-02  4.7642186936073243e-02  5.3654099592711176e-02  5.9646259901092666e-02  5.9645315581036355e-02  5.9642965675464184e-02  5.9639323129676250e-02  5.9634893516957999e-02  5.9630470992329696e-02  5.9626814900252165e-02  5.9624483023350446e-02  5.9623534465323987e-02  -1.1207264762458505e-01  -1.3690737669009123e-01  -3.5655797934416433e-01  -2.8930662609197261e-01  -2.7271312733554931e-01  -2.6574494576028451e-01  -2.4489839861147783e-01  -2.2677740955704773e-01  -2.0995888124773338e-01  -1.9504470649852687e-01  -1.8303724868775267e-01  -1.7137828854379794e-01  -1.5989115907062518e-01  -1.4827344602631645e-01  -1.3627921387032660e-01  -1.2413556342352164e-01  -1.1114588437157751e-01  -1.1965740833120840e-01  -1.2572018515755184e-01  -1.0782353390409270e-01  -5.5879033213883163e-02  2.6791514742807521e-03  4.0410700523762208e-02  -1.6096652160316730e-01  -1.2086459221176264e-01  4.8897558112990125e-02  3.7119023338527457e-02  1.6636440856132258e-02  -1.1707137453978655e-01  7.7305731934631736e-03  2.1433536824534527e-02  -9.7813998604671812e-02  4.6297271496664037e-02  -9.1416557190062156e-02  -7.2519212062326976e-02  5.6219355833073088e-02  -6.6108471762497664e-02  -8.3305224963279662e-02  -4.9900642516172801e-02  4.7516927524273514e-02  -6.9146781203280328e-02  -1.1086871799851641e-01  2.7765573957325089e-02  6.0394526865001916e-03  -1.4368234150546483e-01  -5.2957838886315715e-02  9.0352718296841106e-03  3.7482181337889380e-02  -3.5168924191135827e-02  2.6484300433046788e-02  1.3123540376099928e-02  4.0724369223472303e-03  -1.6681694604648190e-01  3.6742815996309443e-02  -1.7294524081664479e-02  -5.0078804776491261e-03  -1.7312240234389226e-01  -1.6823806019830556e-01  1.5546182521976048e-02  4.1672356568714784e-02  2.6090613299441785e-03  1.7415888760172495e-02  3.1189916756783082e-02  2.8045753829824389e-02  6.2931427897004281e-03  -1.5211371098102586e-01  4.7328055536148980e-02  5.8757871625184172e-02  -1.3513097334899121e-01  -3.1075633347430054e-01  -3.5142785244586283e-01  -1.1748836670617159e-01  4.3310048200930262e-02  -1.1209965053467729e-02  -9.3152129612814966e-02  9.2923885865392724e-03  -6.0798567918586129e-02  -3.5676749786189266e-03  -2.9144741504328348e-02  7.9780372717698032e-03  -1.0549016332478314e-02  2.6312885958116237e-02  8.2297160298604958e-03  2.4652505132276313e-02  5.4590890975515005e-02  2.3803731900171043e-03  3.3934692828934958e-02  -1.1230656198823605e-01  2.5712085078154034e-02  -1.4013022086033529e-02  -1.2341109508777365e-01  -1.1158423243779635e-01  -1.5676455497352756e-01  -1.0542187655099579e-01  -1.6138275328885168e-01  -1.0484181946152916e-01  -7.9932699876483090e-02  -4.7255392987525457e-02  -2.9408953471819217e-02  -6.3282865194273785e-02  -6.8128944241583819e-02  -8.0363737079963610e-02  -7.7518393732714961e-03  -2.6447227090289349e-02  5.8661392384716869e-02  2.6711578091688643e-02  -4.3651883563118839e-02  4.2623528182791137e-02  3.8488374325873695e-02  2.4996050500556102e-02  7.1614908962976485e-03  -6.0919433122074942e-02  1.7088048191236920e-02  5.4563832685185755e-02  3.8433659105833400e-02  -7.6010889514835117e-02  5.3989919249009047e-02  5.4206626738804227e-02  4.7799918284413552e-02  3.4086444463061673e-02  -9.0846533507936381e-02  1.2026877627836901e-02  9.4738230096633944e-03  2.6665220972170507e-02  -1.0462918814314605e-01  4.4412409101206106e-02  -3.2279704961973212e-03  -1.1763133537434833e-01  -1.3022162154877409e-01  -1.4253849167193158e-01  -1.5373588333038818e-01  -1.6587445917230281e-01  -1.7727919504255940e-01  -1.8927394204927950e-01  -2.0406314595190372e-01  -1.1519163267268849e-01  -2.2002530177017879e-01  -2.3750889177822174e-01  -2.5699035678009724e-01  -1.2417318806541457e-01  -2.8038664573987354e-01  -8.5735220443948768e-02  -1.2050358785778095e-01  -2.7908842690346301e-02  2.5064586118625817e-02  5.4980410110450517e-02  -2.1180531325153421e-01  6.9055834164725438e-03  4.4973547053047118e-02  1.6892938761968738e-02  -1.1193213119925723e-01  -3.5743792546906006e-03  5.5122726540514762e-02  -1.1186152123189703e-01  -1.1156391163972652e-01  -1.1118717367918295e-01  -1.1135376190436688e-01  -1.1087069481688293e-01  -1.1113882354624681e-01  -1.1043863018746941e-01  -1.1072908754468595e-01  -1.0973354091479291e-01  -1.0985470409913595e-01  -1.0856718436155381e-01  -1.0839552006774095e-01  -1.0689962965840397e-01  -1.0660623279167677e-01  -1.0505142595131076e-01  -1.0506328860896653e-01  -1.0361508015609622e-01  -1.0436301327104683e-01  -1.0339763353270515e-01  -1.0541770763305931e-01  -1.0460069950389142e-01  -1.0694247915906757e-01  -1.0273999554847667e-01  -1.0444372485298353e-01  -1.0902971654459977e-01  -1.1138535279859321e-01  -1.0336762175440153e-01  -1.0530164021580146e-01  -1.0487762281310237e-01  -1.0712372315076821e-01  -1.0770533672498478e-01  -1.0978662479992581e-01  -1.1168760088956516e-01  -1.1302482616919710e-01  -1.1644606005038963e-01  -1.1605771500406464e-01  -1.2133303355347233e-01  -1.1983950623738310e-01  -1.2570859956863442e-01  -1.2193314023088589e-01  -1.2848355596300179e-01  -1.2080162214916169e-01  -1.2850345532058968e-01  -1.1957080219556548e-01  -1.2550560579431844e-01  -1.1451893981900545e-01  -1.1886587400449282e-01  -1.0664591921044762e-01  -1.0873259599741583e-01  -9.6435609658613308e-02  -9.5386041998788432e-02  -1.1423454410765059e-01  -1.1803521890027267e-01  -8.4648478463357227e-02  -8.0203508070085083e-02  -7.2254512180745328e-02  -6.4049596717806009e-02  -6.0016451542016215e-02  -4.9516061242901852e-02  -4.8607884052757941e-02  -3.5404391765000327e-02  -3.8705521752787748e-02  -2.3134841692454462e-02  -1.0695728911266379e-01  -3.0364319548094206e-02  -1.2871064396084115e-02  -2.3460298456978154e-02  -4.7938397730674419e-03  -1.8010911865018294e-02  1.3448456610461786e-03  -1.2072122925222764e-01  -1.2589619842802141e-01  -1.0843664824028791e-01  -1.3229604906322604e-02  5.9687976211363312e-03  -1.1597300238152700e-01  -8.4128738345794849e-03  9.4825895315380944e-03  -4.4045724857785474e-03  1.2031201484367761e-02  -1.7082771620333099e-04  1.3977471007452870e-02  -1.1030578001017603e-01  3.3250640951310744e-03  1.5320763257560835e-02  7.9215615710026485e-03  1.6554340938261521e-02  1.1967810094010380e-02  1.7402891162990177e-02  -1.0548885859745939e-01  -1.1550605169833135e-01  1.5799770013535896e-02  1.8263547439704268e-02  -1.2794488572971047e-01  -1.3473779537580929e-01  -1.2282946492712790e-01  -1.0769155065736605e-01  1.9412130609917276e-02  1.9080819044777601e-02  2.2955365178000012e-02  2.0089874870584151e-02  2.6121291146143234e-02  2.1355942131638665e-02  1.9620352899339878e-02  1.7881216812773697e-02  2.5976734089941698e-02  -6.2030790430556045e-03  2.8749481818063242e-02  2.2962102092963142e-02  1.5176153246255809e-02  1.6114333250566954e-02  2.4545888168396524e-02  1.7820108157635114e-02  2.6003035126386870e-02  2.0053720191472894e-02  2.7154120110603430e-02  2.2587775184012390e-02  2.7644175973439735e-02  2.4608461302080862e-02  2.7099566421863668e-02  2.5933551758976377e-02  2.5350872060795237e-02  2.6086029169869712e-02  2.2439683162703849e-02  2.5389831358782592e-02  1.8483154471457947e-02  2.3573616262807583e-02  1.4214404696071825e-02  2.1199070920184131e-02  9.5118466286343521e-03  1.8702431537356224e-02  -5.3493303583335663e-02  -8.4863829384754910e-02  5.9805527990791406e-03  1.6738891891384059e-02  4.2719716257316794e-03  1.5811701002840121e-02  -1.0952741848939754e-01  4.4229316144143395e-03  1.6225495641313668e-02  -1.2844392901766377e-01  -1.3074202080472697e-01  -1.3537307314369240e-01  -1.4354424220923037e-01  -1.4504790828977662e-01  -1.5290932085527179e-01  -1.5698073594195955e-01  -1.6443593816318494e-01  -1.7074287544753436e-01  -1.7700186855809424e-01  -1.8649352996883739e-01  -1.8958568005088575e-01  -2.0229677473375429e-01  -2.0128249798142844e-01  -2.1682750445963478e-01  -2.1211029162109155e-01  -2.3117498422020732e-01  -2.2202926928825845e-01  -2.3687240724109523e-01  -2.2581234701064773e-01  -2.4034248083613488e-01  -2.3060802160782307e-01  -2.4145893782779562e-01  -2.3131066416079052e-01  -2.4016099873299959e-01  -2.3023554802975488e-01  -2.3728528002348248e-01  -2.2794969194107145e-01  -2.3349896157682334e-01  -2.2481935233952668e-01  -2.2116227547456707e-01  -2.1886712877651934e-01  -2.1629304877032859e-01  -2.2112514897800412e-01  -2.1327334353957611e-01  -2.1706290351540700e-01  -2.0986463130439281e-01  -2.1293585364351761e-01  -2.0624228705606676e-01  -2.0593814153131285e-01  -2.0956234891500250e-01  -2.0250933145702296e-01  -2.0420895350152868e-01  -1.9837591628561910e-01  -1.9621311636313160e-01  -1.9259027773243104e-01  -1.9423311779607846e-01  -1.8888198499507580e-01  -1.8989053843865189e-01  -1.8502924373055074e-01  -1.6078706928121811e-01  -1.8558376320574677e-01  -1.8109221942215831e-01  -1.7999974356176762e-01  -1.7637652961557118e-01  -1.7717926251929322e-01  -1.7267838658674911e-01  -1.7323109273758755e-01  -1.6892454969977835e-01  -2.3464132689891060e-01  -2.0872250739139236e-01  -1.9852534652194334e-01  -2.5075085485696497e-01  -1.6929245226938652e-01  -1.6510266685357849e-01  -1.6463444275402930e-01  -1.6091980039672824e-01  -1.6120851275552017e-01  -1.5716121424760207e-01  -1.5723982040241460e-01  -1.5331672789154502e-01  -1.5316424418560659e-01  -1.4944293047067672e-01  -1.4936900241386269e-01  -1.4561841934876099e-01  -1.9027247301857905e-01  -1.4536961899367001e-01  -1.4176875010444615e-01  -2.5077135779480070e-01  -1.7819595724348372e-01  -1.7516713679301618e-01  -2.4230513039256388e-01  -1.4141059426717434e-01  -1.3778041412315686e-01  -1.3836476971659137e-01  -1.3418144638907045e-01  -1.3384999260447206e-01  -1.3013974162657735e-01  -1.3046685591258547e-01  -1.2646312938775825e-01  -1.2607570193596715e-01  -1.2244065541819672e-01  -2.1967966065717343e-01  -1.2200405307014860e-01  -1.1833070523780603e-01  -1.4907967780358186e-01  -1.9393468647791784e-01  -5.9016199411068046e-02  -2.0964459963872589e-01  -1.1878427588781540e-01  -1.1467891101768579e-01  -1.1419409192712633e-01  -1.1056182205275776e-01  6.4062697030799554e-03  1.7738979092530659e-02  1.0550156373691623e-02  2.0491130327158744e-02  1.6425303013356110e-02  2.3869510800955392e-02  -1.0988342244610935e-01  -1.0631618538049917e-01  -3.1349571978054401e-02  -1.0688386077590793e-01  -1.0267863095308723e-01  -1.0221407842857075e-01  -9.8489297581353788e-02  -1.1162543233979227e-01  -1.5207375366160580e-01  -1.7755864838947613e-01  2.4303014111194430e-02  2.3176295748049549e-02  2.7355493721741734e-02  9.3645417139587572e-03  3.1095615560199456e-02  2.8403623787315431e-02  2.8168320059462546e-02  3.0500784310815252e-02  2.7612024809890043e-02  3.2972190201092572e-02  2.6716138553515248e-02  3.4732984542875545e-02  2.5872766431852729e-02  3.5768423252279462e-02  2.5239940926974395e-02  3.6407457073320770e-02  2.5222029511976919e-02  3.6835260546105524e-02  2.5764321958117245e-02  3.6788127951727569e-02  2.6794575378660240e-02  3.6090970933966481e-02  2.7855807431636521e-02  3.4579252877064745e-02  2.8641467642659145e-02  3.2190341444236908e-02  2.8521086115790583e-02  2.8579857634974264e-02  2.7339462764848742e-02  -9.7993241308286100e-02  -9.4261532997900091e-02  -9.4502305624558344e-02  -9.0414422956039756e-02  -