<?xml version="1.0"?>
<VTKFile type="UnstructuredGrid"  version="0.1"  >
<UnstructuredGrid>
<Piece  NumberOfPoints="2886" NumberOfCells="5412">
<Points>
<DataArray  type="Float64"  NumberOfComponents="3"  format="ascii">0 0.1 0  0.98 0.1 0  1 0.1 0  1 0 0  1.5 0 0  3 0 0  3 0.3 0  0 0.3 0  0.01975375321854102 0.1 0  0.03918897458218897 0.1 0  0.05831079002627837 0.1 0  0.07712425666319796 0.1 0  0.0956343475259058 0.1 0  0.1138459546796227 0.1 0  0.1317638870668193 0.1 0  0.1493928840275937 0.1 0  0.1667376092280033 0.1 0  0.1838026357802664 0.1 0  0.2005924801287244 0.1 0  0.2171115811543574 0.1 0  0.2333643037107681 0.1 0  0.2493549444060462 0.1 0  0.2650877293306821 0.1 0  0.2805668058011438 0.1 0  0.2957962848620976 0.1 0  0.3107801766802674 0.1 0  0.3255224447361181 0.1 0  0.3400269848175519 0.1 0  0.3542976327080778 0.1 0  0.3683381609158136 0.1 0  0.3821522744564845 0.1 0  0.3957436316838916 0.1 0  0.4091158196437086 0.1 0  0.4222723742184605 0.1 0  0.4352167733293057 0.1 0  0.4479524348643424 0.1 0  0.4604827295467524 0.1 0  0.4728109659990664 0.1 0  0.4849404035409129 0.1 0  0.4968742471455402 0.1 0  0.508615651843175 0.1 0  0.520167721130924 0.1 0  0.5315335063628542 0.1 0  0.5427160117228604 0.1 0  0.5537181940261912 0.1 0  0.564542961924507 0.1 0  0.575193173270606 0.1 0  0.5856716438765114 0.1 0  0.5959811458006617 0.1 0  0.6061243988680743 0.1 0  0.6161040893285659 0.1 0  0.6259228503970299 0.1 0  0.6355832809287655 0.1 0  0.6450879281079505 0.1 0  0.6544393102991295 0.1 0  0.663639896558931 0.1 0  0.6726921201956305 0.1 0  0.6815983691630338 0.1 0  0.6903610031396646 0.1 0  0.6989823343332418 0.1 0  0.7074646404270378 0.1 0  0.7158101645005117 0.1 0  0.7240211149852543 0.1 0  0.7320996585612525 0.1 0  0.7400479319727645 0.1 0  0.7478680336617921 0.1 0  0.755562036504958 0.1 0  0.7631319665092091 0.1 0  0.7705798279317605 0.1 0  0.777907588066146 0.1 0  0.7851171851013118 0.1 0  0.7922105226004981 0.1 0  0.7991894774550319 0.1 0  0.8060558928136696 0.1 0  0.812811583201334 0.1 0  0.8194583352091183 0.1 0  0.8259979035038147 0.1 0  0.8324320194413813 0.1 0  0.8387623808293405 0.1 0  0.8449906627004957 0.1 0  0.8511185094880469 0.1 0  0.8571475426008311 0.1 0  0.8630793533568246 0.1 0  0.8689155114558531 0.1 0  0.8746575581239063 0.1 0  0.8803070109173519 0.1 0  0.885865363938836 0.1 0  0.8913340851680313 0.1 0  0.8967146206523592 0.1 0  0.9020083930695622 0.1 0  0.9072167995950768 0.1 0  0.9123412183131177 0.1 0  0.9173830029719022 0.1 0  0.9223434865647732 0.1 0  0.9272239785872722 0.1 0  0.9320257720706087 0.1 0  0.9367501330378739 0.1 0  0.9413983102716995 0.1 0  0.9459715351562933 0.1 0  0.9504710127113115 0.1 0  0.9548979346500661 0.1 0  0.9592534708344373 0.1 0  0.9635387708980176 0.1 0  0.9677549682252325 0.1 0  0.971903177251235 0.1 0  0.9759844952956497 0.1 0  0.9840000000000086 0.1 0  0.987999999999974 0.1 0  0.9919999999999393 0.1 0  0.9959999999999913 0.1 0  1 0.09591793123533533 0  1 0.09133596463859224 0  1 0.08619288104391448 0  1 0.08041996484521211 0  1 0.07394008421771697 0  1 0.06666666567302955 0  1 0.05850252932209174 0  1 0.04933859630113544 0  1 0.03905242821848202 0  1 0.02750659386753798 0  1 0.01454683679239736 0  1.015625 0 0  1.03125 0 0  1.046875 0 0  1.0625 0 0  1.078125 0 0  1.09375 0 0  1.109375 0 0  1.125 0 0  1.140625 0 0  1.15625 0 0  1.171875 0 0  1.1875 0 0  1.203125 0 0  1.21875 0 0  1.234375 0 0  1.25 0 0  1.265625 0 0  1.28125 0 0  1.296875 0 0  1.3125 0 0  1.328125 0 0  1.34375 0 0  1.359375 0 0  1.375 0 0  1.390625 0 0  1.40625 0 0  1.421875 0 0  1.4375 0 0  1.453125 0 0  1.46875 0 0  1.484375 0 0  1.515920751924515 0 0  1.531989369316721 0 0  1.54820720925872 0 0  1.564575665560501 0 0  1.581096138674279 0 0  1.597770029901263 0 0  1.614598783332311 0 0  1.631583831055205 0 0  1.64872661129721 0 0  1.666028606716533 0 0  1.683491276608443 0 0  1.701116134125304 0 0  1.718904673324128 0 0  1.736858414799339 0 0  1.754978895814663 0 0  1.773267661782904 0 0  1.791726281103402 0 0  1.810356325314689 0 0  1.8291593848892 0 0  1.848137076690385 0 0  1.867291007717254 0 0  1.886622833871288 0 0  1.90613418642363 0 0  1.925826753299799 0 0  1.945702199101513 0 0  1.96576223584749 0 0  1.986008569283268 0 0  2.006442931928877 0 0  2.02706707547783 0 0  2.047882750887917 0 0  2.06889175187935 0 0  2.090095860038271 0 0  2.111496891648636 0 0  2.133096679109554 0 0  2.154897066851056 0 0  2.176899916687499 0 0  2.199107102752146 0 0  2.22152053937028 0 0  2.244142122958061 0 0  2.266973806444078 0 0  2.290017523268154 0 0  2.313275249499252 0 0  2.336748971745516 0 0  2.360440702338606 0 0  2.384352453384031 0 0  2.408486280477412 0 0  2.432844240041185 0 0  2.457428414757088 0 0  2.482240901796653 0 0  2.507283830121838 0 0  2.532559332080812 0 0  2.558069568787417 0 0  2.583816724966441 0 0  2.60980299606584 0 0  2.636030600971886 0 0  2.662501790984011 0 0  2.689218818279327 0 0  2.716183964547616 0 0  2.743399548861297 0 0  2.77086788244719 0 0  2.798591312896326 0 0  2.826572223178268 0 0  2.854812990138617 0 0  2.883316031690714 0 0  2.912083780657189 0 0  2.941118704633482 0 0  2.970423276998917 0 0  3 0.02999999999994495 0  3 0.05999999999987042 0  3 0.089999999999783 0  3 0.119999999999701 0  3 0.149999999999619 0  3 0.179999999999692 0  3 0.2099999999997737 0  3 0.2399999999998511 0  3 0.2699999999999185 0  2.970138294777171 0.3 0  2.940375666438236 0.3 0  2.910711782853056 0.3 0  2.881146331305122 0.3 0  2.851678975030285 0.3 0  2.822309388626621 0.3 0  2.793037250095074 0.3 0  2.76386223529133 0.3 0  2.734784017903872 0.3 0  2.705802289276642 0.3 0  2.676916713794697 0.3 0  2.648126987654635 0.3 0  2.619432780406184 0.3 0  2.590833779385199 0.3 0  2.562329669847737 0.3 0  2.533920134950189 0.3 0  2.505604855727852 0.3 0  2.477383539822502 0.3 0  2.449255847639465 0.3 0  2.421221492569094 0.3 0  2.393280152486815 0.3 0  2.36543151914496 0.3 0  2.337675285481809 0.3 0  2.310011142385583 0.3 0  2.282438797441587 0.3 0  2.254957931061538 0.3 0  2.227568248063605 0.3 0  2.200269436651085 0.3 0  2.173061204949961 0.3 0  2.145943251515011 0.3 0  2.118915272469994 0.3 0  2.091976978084957 0.3 0  2.065128060700849 0.3 0  2.038368218849433 0.3 0  2.01169717777258 0.3 0  1.985114624111908 0.3 0  1.958620267850966 0.3 0  1.93221382054972 0.3 0  1.905894991850698 0.3 0  1.879663489459713 0.3 0  1.853519019126419 0.3 0  1.827461291053897 0.3 0  1.801490031354372 0.3 0  1.775604937580312 0.3 0  1.74980572560258 0.3 0  1.724092118631866 0.3 0  1.698463829173586 0.3 0  1.672920575782554 0.3 0  1.647462076974085 0.3 0  1.622088043536933 0.3 0  1.5967981978949 0.3 0  1.571592267767068 0.3 0  1.546469970305736 0.3 0  1.521431023814044 0.3 0  1.496475156230927 0.3 0  1.471602093687753 0.3 0  1.446811560490646 0.3 0  1.422103279101731 0.3 0  1.397476971708191 0.3 0  1.37293238939876 0.3 0  1.348469231419202 0.3 0  1.324087248732772 0.3 0  1.299786165921677 0.3 0  1.275565710847046 0.3 0  1.251425617644257 0.3 0  1.227365618676339 0.3 0  1.203385446174014 0.3 0  1.179484853067473 0.3 0  1.155663548773374 0.3 0  1.131921292279077 0.3 0  1.108257802159295 0.3 0  1.084672829009693 0.3 0  1.061166115303374 0.3 0  1.037737392995421 0.3 0  1.01438640299116 0.3 0  0.991112899770314 0.3 0  0.9679166155523955 0.3 0  0.944797284182564 0.3 0  0.921754678526042 0.3 0  0.8987885143602501 0.3 0  0.8758985548820624 0.3 0  0.8530845484099929 0.3 0  0.8303462351786988 0.3 0  0.8076833651172373 0.3 0  0.7850956864865304 0.3 0  0.7625829601354557 0.3 0  0.7401449314598274 0.3 0  0.717781337993959 0.3 0  0.6954919649675473 0.3 0  0.6732765357561226 0.3 0  0.6511348120768439 0.3 0  0.6290665642016573 0.3 0  0.6070715355430467 0.3 0  0.5851494825775325 0.3 0  0.5633001690203812 0.3 0  0.5415233562273221 0.3 0  0.5198187909431873 0.3 0  0.4981862401387795 0.3 0  0.4766254686134248 0.3 0  0.4551362360485234 0.3 0  0.4337182975262159 0.3 0  0.4123714223228037 0.3 0  0.3910953802377493 0.3 0  0.3698899313205595 0.3 0  0.3487548463710963 0.3 0  0.3276898864081783 0.3 0  0.3066948129116018 0.3 0  0.2857694003037476 0.3 0  0.2649134227095047 0.3 0  0.2441266417321288 0.3 0  0.2234088223399122 0.3 0  0.2027597568977288 0.3 0  0.1821792020676698 0.3 0  0.1616669305402443 0.3 0  0.1412227158799362 0.3 0  0.12084633013886 0.3 0  0.1005375673448281 0.3 0  0.08029618164595353 0.3 0  0.06012194778526769 0.3 0  0.04001466495039718 0.3 0  0.01997408913631205 0.3 0  0 0.2800000000000553 0  0 0.2600000000001105 0  0 0.2400000000001658 0  0 0.2200000000002211 0  0 0.2000000000002764 0  0 0.1800000000002244 0  0 0.1600000000001691 0  0 0.140000000000115 0  0 0.1200000000000564 0  1.13346801534201 0.01255848438672509 0  1.003577645172735 0.09351054173913405 0  0.9777559943702486 0.1034978156913738 0  0.9524533750752109 0.1040889939962738 0  0.9296242411226409 0.1041520033606139 0  0.9046110503652111 0.104409422380137 0  0.8777709649694228 0.1053360318797398 0  0.8483859145648608 0.1061007868330701 0  0.8162363822948977 0.1052777104363292 0  0.7893110024210437 0.1060761643971561 0  0.7587949382612539 0.1067265405088633 0  0.7280603867732535 0.1069398153264939 0  0.6947001989413015 0.1075609887579097 0  0.6590363283767549 0.1076715322596598 0  0.6210028614493155 0.1072970410408442 0  1.1953125 0.01353164693413185 0  1.258193991486058 0.01269648635163345 0  1.3201967268638 0.01407907077719561 0  1.383538555392096 0.01434101079053473 0  1.445312500000001 0.01303671693628424 0  1.508925448095738 0.01398525724792267 0  0.9939176689634008 0.1034638089837981 0  1.120967497222226 0.2796788492172345 0  1.572835902117391 0.01424132418857359 0  1.637573277451887 0.01212536916586023 0  1.709730776795181 0.01466855431023635 0  1.005631976950563 0.07074019818158772 0  1.784944696816299 0.01454708406461822 0  0.5805605730631225 0.1101465090472147 0  1.855621181165637 0.01550931272897607 0  0.5366111276616774 0.1096761308243709 0  1.935200147913231 0.01760344159641829 0  1.214922267975168 0.2799787705802257 0  1.31178773425331 0.2792
[...]
<PointData  Scalars="pressure"> 
<DataArray  type="Float64"  Name="pressure"  format="ascii">1.5784402340798429e-01  -1.6556905220463261e-01  -2.1518858729010609e-01  -1.6108559466449912e-01  -4.0063905841152284e-02  0.0000000000000000e+00  0.0000000000000000e+00  1.5785135692864768e-01  1.5191790127762778e-01  1.4608726709307746e-01  1.4035055356650181e-01  1.3470623586143954e-01  1.2915280015941100e-01  1.2368876709565965e-01  1.1831270216080794e-01  1.1302313413542038e-01  1.0781866751230115e-01  1.0269791354945386e-01  9.7659466488007551e-02  9.2701976563381791e-02  8.7824129317576702e-02  8.3024561094502541e-02  7.8301973620950455e-02  7.3655152527201381e-02  6.9082700323183061e-02  6.4583424319620136e-02  6.0156082129339060e-02  5.5799372473400798e-02  5.1512131386813008e-02  4.7293229104380802e-02  4.3141313952329875e-02  3.9055305811831753e-02  3.5033915440358956e-02  3.1076044872003494e-02  2.7180649246202226e-02  2.3346457187696481e-02  1.9572287580904301e-02  1.5857092547390265e-02  1.2199740398775914e-02  8.5990362134743537e-03  5.0539873242426616e-03  1.5633564189665398e-03  -1.8738790710653365e-03  -5.2588979329573722e-03  -8.5927750774316466e-03  -1.1876192591789115e-02  -1.5110978902551555e-02  -1.8297749148171900e-02  -2.1437623563791395e-02  -2.4531888151815198e-02  -2.7581567089097699e-02  -3.0587105412161562e-02  -3.3550575273750931e-02  -3.6472462016444988e-02  -3.9353897846881911e-02  -4.2196028556197862e-02  -4.4999852926152731e-02  -4.7766430497667753e-02  -5.0496957982854848e-02  -5.3192378173173176e-02  -5.5853669185857109e-02  -5.8481796172413211e-02  -6.1078360558917320e-02  -6.3643747289837696e-02  -6.6179246811251549e-02  -6.8685521609508610e-02  -7.1164637599025360e-02  -7.3617017951187275e-02  -7.6042910728096144e-02  -7.8444091715578465e-02  -8.0822167192368413e-02  -8.3176825061145640e-02  -8.5510182396090303e-02  -8.7822971248104079e-02  -9.0115486700162908e-02  -9.2389353041074207e-02  -9.4645489001954228e-02  -9.6884846171231248e-02  -9.9109208581455777e-02  -1.0131868317227209e-01  -1.0351374167630048e-01  -1.0569508614851740e-01  -1.0786624751216344e-01  -1.1002631029442780e-01  -1.1217598877234944e-01  -1.1431722204530438e-01  -1.1645043462034678e-01  -1.1857662297484316e-01  -1.2069695159932020e-01  -1.2281337446787496e-01  -1.2492639356800972e-01  -1.2703628432831179e-01  -1.2914551680550262e-01  -1.3125505401374099e-01  -1.3336610489029416e-01  -1.3548014702556360e-01  -1.3759850499552620e-01  -1.3972295147313907e-01  -1.4185534437401992e-01  -1.4399777687047433e-01  -1.4615255078644654e-01  -1.4832128609113912e-01  -1.5050666754526981e-01  -1.5269994493618091e-01  -1.5508250567770288e-01  -1.5653106079114101e-01  -1.6038463580996595e-01  -1.5876537560024781e-01  -1.6358413772897509e-01  -1.6054682534082645e-01  -2.0282675172478581e-01  -1.8149030949801581e-01  -1.7492184334911126e-01  -1.7013637572076115e-01  -1.6690315672678216e-01  -1.6447569677250112e-01  -1.6265687077554608e-01  -1.6132388507401085e-01  -1.6052326923489413e-01  -1.6032696451136141e-01  -1.6073326631375806e-01  -1.6152667467085902e-01  -1.6190152262724025e-01  -1.6169526583968075e-01  -1.6102309798112732e-01  -1.5997552324797026e-01  -1.5859610641429045e-01  -1.5686963073099464e-01  -1.5478313864176751e-01  -1.5236563206951698e-01  -1.4963441205119926e-01  -1.4659337146442028e-01  -1.4325621000006430e-01  -1.3963400482470095e-01  -1.3573880740554606e-01  -1.3159107797688049e-01  -1.2720381153648483e-01  -1.2258949957842379e-01  -1.1776661362467065e-01  -1.1275420054683737e-01  -1.0756306337623348e-01  -1.0222335735927465e-01  -9.6753651184089212e-02  -9.1170036466422535e-02  -8.5503663570849500e-02  -7.9773111004620922e-02  -7.4008369496479209e-02  -6.8231920886392683e-02  -6.2466707417775491e-02  -5.6744712478759604e-02  -5.1087034675877906e-02  -4.5519884068604244e-02  -3.4643661293581041e-02  -2.9344495854341384e-02  -2.4175989628848375e-02  -1.9172435673860268e-02  -1.4360673086555514e-02  -9.7429412219772384e-03  -5.3457429834793012e-03  -1.1742858009949032e-03  2.7225917424951707e-03  6.3695388141489567e-03  9.7665683291384038e-03  1.2892790786645410e-02  1.5750830250789650e-02  1.8348176766053777e-02  2.0689224903685598e-02  2.2779462442313578e-02  2.4634765762169535e-02  2.6256109035205678e-02  2.7658151409859492e-02  2.8871871067631109e-02  2.9886122045454978e-02  3.0731347877585847e-02  3.1421374043328794e-02  3.1964394030175577e-02  3.2382013248221396e-02  3.2678759741220198e-02  3.2885582708355642e-02  3.2993289983882970e-02  3.3022695568734037e-02  3.2978667337981167e-02  3.2868927883843137e-02  3.2702749324422326e-02  3.2489183988400804e-02  3.2232171217562451e-02  3.1932365846983904e-02  3.1596692647027184e-02  3.1225701944512928e-02  3.0821901605712080e-02  3.0386194916006779e-02  2.9918820271205647e-02  2.9419975406736593e-02  2.8889411588140755e-02  2.8325751992919809e-02  2.7729129244680080e-02  2.7096938107672591e-02  2.6427756107249765e-02  2.5722549984009958e-02  2.4976465846808026e-02  2.4187486706720503e-02  2.3359899839941189e-02  2.2484167718039256e-02  2.1567302544066285e-02  2.0598850517762786e-02  1.9587592585131042e-02  1.8525793391646089e-02  1.7409651080054767e-02  1.6249668119911621e-02  1.5031700146323802e-02  1.3767082639314804e-02  1.2449765519802043e-02  1.1078752481889951e-02  9.6540574014665915e-03  8.1778594044168915e-03  6.6533049259100306e-03  5.0710236003314035e-03  3.4487378107605701e-03  1.7701480869751621e-03  0.0000000000000000e+00  0.0000000000000000e+00  0.0000000000000000e+00  0.0000000000000000e+00  0.0000000000000000e+00  0.0000000000000000e+00  0.0000000000000000e+00  0.0000000000000000e+00  0.0000000000000000e+00  1.9241722174918798e-03  3.7204960161968908e-03  5.4892425580535817e-03  7.2050373132015316e-03  8.8716468437629974e-03  1.0487822827348727e-02  1.2052656597668394e-02  1.3564437850143307e-02  1.5020318339264050e-02  1.6418105397960139e-02  1.7753801896844251e-02  1.9024940608717518e-02  2.0226461828168261e-02  2.1355376434041014e-02  2.2406842869532515e-02  2.3374313861390487e-02  2.4257369762275816e-02  2.5044911090504069e-02  2.5732271890744226e-02  2.6313296795504253e-02  2.6781135651890411e-02  2.7129106673846232e-02  2.7351566459381908e-02  2.7437803883831529e-02  2.7385967475470566e-02  2.7184566896217094e-02  2.6831268120374480e-02  2.6314733979999682e-02  2.5629854429006872e-02  2.4773944876260650e-02  2.3736348285061996e-02  2.2511586279704895e-02  2.1114483467654769e-02  1.9530723549025138e-02  1.7734484291690646e-02  1.5766075739968823e-02  1.3601840931112139e-02  1.1243097722732485e-02  8.6911014462711534e-03  5.9536193112938130e-03  3.0217755589193439e-03  -9.0719443594926305e-05  -3.3920447948874756e-03  -6.8716551888542716e-03  -1.0540543098797667e-02  -1.4383386553859441e-02  -1.8401028295110044e-02  -2.2584931765765526e-02  -2.6937895560588218e-02  -3.1446296240260740e-02  -3.6107481222143620e-02  -4.0910026171261216e-02  -4.5840905061819627e-02  -5.0891450048146790e-02  -5.6046002223414805e-02  -6.1281506915724711e-02  -6.6540327032187971e-02  -7.1866388121514121e-02  -7.7177042818800320e-02  -8.2413671293635832e-02  -8.7579431845202366e-02  -9.2603897438099936e-02  -9.7467813576481627e-02  -1.0206618908917467e-01  -1.0639290476918391e-01  -1.1033917824262474e-01  -1.1389317600673993e-01  -1.1694522469507553e-01  -1.1949936264696227e-01  -1.2142384855747179e-01  -1.2273350166033790e-01  -1.2335612273893164e-01  -1.2316234438472567e-01  -1.2232202253160396e-01  -1.2069817965568351e-01  -1.1829691200569256e-01  -1.1523413284635428e-01  -1.1153196036968394e-01  -1.0731627300100441e-01  -1.0265650369628954e-01  -9.7552186836406027e-02  -9.2141382646027309e-02  -8.6463926427188864e-02  -8.0614140387262834e-02  -7.4596614682826690e-02  -6.8439976021802851e-02  -6.2197665627459264e-02  -5.5883082683506093e-02  -4.9507587891718760e-02  -4.3095292026646977e-02  -3.6651434304137247e-02  -3.0194728265644538e-02  -2.3728174087755988e-02  -1.7254418964895272e-02  -1.0785136702617645e-02  -4.3215989470575950e-03  2.1349445239451188e-03  8.5809451896169276e-03  1.5013243179681392e-02  2.1430652759877045e-02  2.7832642558589499e-02  3.4217650342602643e-02  4.0585481623450208e-02  4.6934496485488579e-02  5.3265053637460112e-02  5.9576413959455697e-02  6.5868299810685260e-02  7.2140612569935245e-02  7.8393037591238113e-02  8.4625522576366810e-02  9.0838030987751853e-02  9.7030463809813283e-02  1.0320279312574110e-01  1.0935501816074142e-01  1.1548714939058662e-01  1.2159916407578807e-01  1.2769113315841665e-01  1.3376307658503098e-01  1.3981502271226301e-01  1.4584702577483594e-01  1.5185912015915604e-01  1.5785132859390053e-01  1.5785102377162882e-01  1.5785027935165116e-01  1.5784911081192185e-01  1.5784769142864674e-01  1.5784627058084821e-01  1.5784509959884288e-01  1.5784435021837495e-01  1.5784404649081513e-01  -1.5321057157244175e-01  -1.8593395504993177e-01  -1.5882985062767124e-01  -1.4511037258156723e-01  -1.3452709420222433e-01  -1.2394864411011890e-01  -1.1342561939839610e-01  -1.0259096530800374e-01  -9.1323343448524427e-02  -8.2244904144821912e-02  -7.2235583528640124e-02  -6.2378943177372873e-02  -5.1867531035855036e-02  -4.0783695533455080e-02  -2.9087357618578912e-02  -1.4130312962062058e-01  -1.2477237117854573e-01  -1.0503434330223101e-01  -8.2578623471183110e-02  -5.9878413598162157e-02  -3.7384874156695953e-02  -1.7153735671145917e-01  -1.2149217057266236e-01  -1.7158112711626990e-02  -1.6371387817936637e-04  1.3909193975492633e-02  -1.6637719346281959e-01  2.3638279081920646e-02  -1.6748902208710312e-02  2.9000699422452265e-02  -3.4143200426134373e-03  3.1952698573244488e-02  -1.1155210539516326e-01  -9.4403042238123513e-02  3.2887352152738365e-02  -7.4088205008901259e-02  1.0399603416893340e-02  -4.7965782987581078e-02  3.2511289268369617e-02  2.5262067942102014e-02  -1.5880050574776422e-01  3.1342337397659660e-02  -2.4533123425673341e-02  -1.2227966479025107e-01  4.0666098238382520e-02  2.9620716130901472e-02  -1.6874408951254530e-03  5.8164647711338315e-02  7.1843826995730631e-03  2.7349405231581220e-02  1.4780011781338354e-02  7.5456160031260683e-02  -1.1646664672263841e-01  2.4596976583151152e-02  2.0308431221011648e-02  -1.0487335171326706e-01  2.4258905154563935e-02  2.1064235352652543e-02  -8.9296257234605103e-02  9.5656601362229934e-02  1.0967380534243884e-01  -1.2355582898478849e-02  1.7937796843172812e-02  1.4226301533923624e-02  2.6499753101606040e-02  -7.1722971138154942e-02  2.7288331617075390e-02  -1.5158243208868680e-01  -4.6742467954038761e-02  2.6446940991147853e-02  1.2712566315162355e-01  -2.6999600754321812e-02  1.0338478317907662e-02  2.3748638010516201e-02  -7.4325848260567134e-03  1.8389088798473948e-02  2.0722805164030290e-02  5.0100420492854132e-02  1.7027567912805807e-02  6.9060751427389294e-02  8.7837775561534950e-02  1.2764758238646428e-02  1.1943748481959879e-01  1.6119952249005647e-03  1.5226774513564978e-01  -1.6152163591753632e-01  8.1348917227573297e-03  5.7402793611142410e-03  1.3724004419401251e-01  -1.7292391855328515e-01  -1.6086542394816580e-01  -1.1761437809848217e-01  -5.8947431981311790e-02  4.8642739088676692e-03  3.0693035560870160e-02  1.3757993050096665e-01  -3.8627452528751730e-02  -6.3194379317465951e-02  -8.4368895075046996e-02  -1.0356822669713332e-01  8.5718822800650157e-02  2.7184849575285750e-02  6.6545241341187195e-02  1.0007919030692693e-01  2.5301147325868384e-02  2.2916222819570311e-02  4.8842652757802384e-02  2.5968288243485592e-02  2.8566467912452764e-02  3.3304184387791584e-02  3.0546859301094242e-02  3.2008349200888200e-02  3.2830075252977972e-02  3.2646763798616057e-02  -2.7129404837986270e-02  1.7712889419540450e-02  3.0781931538909745e-02  2.6653906652865322e-02  3.3253625294702989e-03  1.9388805340463475e-02  7.6887447772963592e-03  -7.7874384369698074e-03  1.3438783995765242e-03  -1.0598772630857138e-02  -2.2537732288588033e-02  1.5260750731735143e-01  -3.4702279198626708e-02  -4.6395112343591546e-02  -5.7183928479576214e-02  -6.7546404207057709e-02  -7.7319794053475527e-02  -8.6593545754143991e-02  -1.4772934645526012e-01  -9.8042656246879883e-02  -1.0900109380198385e-01  -1.1971162021110875e-01  -1.3360264726152618e-01  -1.3036290939204115e-01  -9.4300131128011264e-02  -1.1480161478525341e-01  -7.2201452502539232e-02  -4.8619336354209147e-02  -1.4090687707849620e-01  -1.6096044669823686e-01  1.6909030090729658e-03  1.5211097823959732e-01  4.5336673613018096e-03  -1.6129722605989166e-01  1.5285940633512382e-01  1.3696813327970815e-03  1.4875534134543353e-01  -1.6126440521788760e-01  -1.6092537249558370e-01  -1.6046430881815457e-01  -1.6096641418606020e-01  -1.6048778814521264e-01  -1.6131828237690785e-01  -1.6065828483628350e-01  -1.6177325076305998e-01  -1.6094257852641256e-01  -1.6209491392882863e-01  -1.6114545970071451e-01  -1.6202055085505457e-01  -1.6087558897259507e-01  -1.6138715987574576e-01  -1.6010438332860033e-01  -1.6030034030291290e-01  -1.5884128738130135e-01  -1.5882024873901671e-01  -1.5719063245991569e-01  -1.5677896838516031e-01  -1.5484295011263843e-01  -1.5846658756149587e-01  -1.5535766211796312e-01  -1.5262070243427978e-01  -1.5575015050662355e-01  -1.5771551717833493e-01  -1.5290781459972738e-01  -1.5002672443269496e-01  -1.5023760453353052e-01  -1.4699008320365811e-01  -1.4708491024073717e-01  -1.4351593938663731e-01  -1.4352874061989049e-01  -1.3988631431380696e-01  -1.3956599081279536e-01  -1.3519267024578804e-01  -1.3497936305133060e-01  -1.3078416181399541e-01  -1.3014869688447478e-01  -1.2579330814261164e-01  -1.2491864475997040e-01  -1.2047657251339626e-01  -1.1937591208077002e-01  -1.1489587703593343e-01  -1.1352929079002928e-01  -1.0908172525156119e-01  -1.0741328714757198e-01  -1.0305022805359013e-01  -1.0109338562988461e-01  -9.6881443772376064e-02  -9.4584910700252753e-02  -9.0614110198848463e-02  -8.7858012560342910e-02  -1.5392167756917224e-01  -1.5571570283336422e-01  -8.4266388612628140e-02  -8.1084952979907435e-02  -7.7918868079617884e-02  -7.4741562048709048e-02  -7.1668619578886886e-02  -6.8139441528448544e-02  -6.5520579975294244e-02  -6.1664606532969124e-02  -1.4892100346510828e-01  -5.9587924841054185e-02  -5.5308921476010672e-02  -5.3581348848559265e-02  -4.9091192275536037e-02  -4.7976601656423971e-02  -4.3157495930096698e-02  -1.5112213583022951e-01  -1.5307041742130922e-01  -1.6252106666490362e-01  -4.2525022380372264e-02  -3.7424559017266087e-02  -3.7352930508881381e-02  -3.1978887704905846e-02  -3.2441080992747312e-02  -2.6851160790759398e-02  -1.5903118010318795e-01  -2.7807201932057178e-02  -2.2009174805078975e-02  -1.3918641842948135e-01  -2.3436603139207438e-02  -1.7499152357513415e-02  -1.9359872711989363e-02  -1.3312729861074932e-02  -1.5493689089173307e-02  -9.4399794625695792e-03  -1.5946924190254078e-01  -1.2569577636081314e-01  -1.1962718206373310e-02  -5.8810503776169929e-03  -1.4738612383833677e-01  -1.4861626638633904e-01  -1.4579254686409454e-01  -1.0976867890347980e-01  -8.6227318878349061e-03  -2.4748006533535172e-03  -5.6257151574246357e-03  5.7804014878941052e-04  -2.7785850632013913e-03  3.2168167606681812e-03  -3.8173313702559490e-02  3.7748541301594891e-04  -2.1308318040053099e-02  -5.7504614888329454e-02  -1.4200876283404574e-04  5.6339610934721032e-03  8.9941579709883323e-03  1.1251914649404818e-02  7.8947720262362471e-03  1.3286403050695395e-02  1.0027037691963720e-02  1.5184139037508112e-02  1.1950111020258711e-02  1.6833149804708299e-02  1.3710690085632833e-02  1.8353261589643458e-02  1.5368293869635643e-02  1.9687256600858238e-02  1.6804144703434293e-02  2.0906382461261024e-02  1.8240936918016881e-02  2.2119865715510282e-02  1.9523075163479117e-02  2.3114064256325229e-02  2.0731856438818846e-02  2.3976921443471830e-02  2.1697143891127472e-02  2.4762900948416638e-02  -7.7624727201190680e-02  -9.2690025532060183e-02  2.2685866978511660e-02  2.5425072913683528e-02  2.3623387649377683e-02  2.6055915595159893e-02  -1.4633390499851723e-01  -1.1136509210690612e-01  2.4457637818640944e-02  2.6575288098476146e-02  -1.2859830320325130e-01  -7.5313922191530311e-02  -1.4273957396835105e-01  -1.4354779512656424e-01  -1.5019395811264483e-01  -1.4399554148065888e-01  -1.4956069941937369e-01  -1.4372095652789940e-01  -1.4959766804702124e-01  -1.4290097561773091e-01  -1.4701415463506115e-01  -1.4106553971893968e-01  -1.4527816477944408e-01  -1.3882541792409264e-01  -1.4150286683059765e-01  -1.3591839663551011e-01  -1.3789680659272655e-01  -1.3281237096621556e-01  -1.3415271247466196e-01  -1.2942630673905414e-01  -1.3033773516344974e-01  -1.2594621286369695e-01  -1.2647615624438252e-01  -1.2236077582618826e-01  -1.2262443558434594e-01  -1.1874426471212267e-01  -1.1877960874175632e-01  -1.1514779048387482e-01  -1.1462491113380838e-01  -1.1126535141743084e-01  -1.1143194227866986e-01  -1.0782141774382994e-01  -1.0757618230969336e-01  -1.0421102655424429e-01  -1.0398076082385597e-01  -1.0064400929933254e-01  -1.0015150762177728e-01  -9.7014565674730185e-02  -1.3063226413473797e-01  -1.0752024848476016e-01  -1.2139670922084971e-01  -9.6455348593227644e-02  -9.3306631423726361e-02  -9.3627881579706002e-02  -9.0093751292828053e-02  -8.9558168326980492e-02  -8.6478419572494566e-02  -8.5764807209334673e-02  -8.2807245664096793e-02  -8.1986887062824490e-02  -7.9078467643444422e-02  -8.6278566566442200e-02  -1.5470032465467445e-01  -1.4690803429155833e-01  -7.8270091344094794e-02  -7.5293207047400432e-02  -7.6059805140768377e-02  -7.2280665494433252e-02  -7.1484188573834068e-02  -6.8520702386997881e-02  -6.7618584965298184e-02  -6.4735290937582415e-02  -1.3886407301332859e-01  -6.9055062331461622e-02  -6.3776396421821480e-02  -6.0964210307495950e-02  -1.3051077666692282e-01  -6.0048437867453439e-02  -5.7137338574183009e-02  -5.8326159200442436e-02  -5.4178521893991881e-02  -5.3201524200746114e-02  -5.0131029687630134e-02  -5.1066739934167417e-02  -4.7021287108864857e-02  -4.6101284391567417e-02  -4.2984532733012233e-02  -4.2056129504266467e-02  -3.8854529231342132e-02  -3.9808261317744439e-02  -3.5681532624535127e-02  -3.4698524607083218e-02  -3.1550381799258682e-02  -3.0606456190550125e-02  -2.7437088993034580e-02  -1.3860380963823871e-01  -1.0726387426139498e-01  -1.2227694329930619e-01  -2.6587357613781760e-02  -2.3356017067617536e-02  -2.4218096432237064e-02  -1.9983614395826611e-02  -1.9127003000495624e-02  -1.5755182097174782e-02  -2.0844528007713099e-02  2.5119624017730720e-02  2.7007963489273978e-02  2.5722182087373847e-02  2.7373315589591295e-02  2.6259463429338780e-02  2.7667338001666420e-02  -8.8874929277175968e-02  -4.7578510215391584e-02  -1.6234304080901069e-01  -1.4866872308233223e-02  -1.1562180184821056e-02  -9.9474488214843754e-02  2.2751327972745664e-02  2.6837936402829565e-02  1.4080851461201811e-02  2.6705504824915526e-02  2.7880896643258359e-02  2.8930381042994262e-02  2.8924046643920648e-02  2.8020122728305761e-02  2.8865479894318667e-02  2.8092117557466535e-02  2.8748153774213126e-02  2.8081859022383478e-02  2.8564261372303834e-02  2.7999384859530217e-02  2.8322309865436452e-02  2.7833282294875708e-02  2.8008921944523681e-02  2.7591175503384927e-02  2.7636131460292895e-02  2.7276286855807498e-02  2.7201958337151898e-02  2.6892017231659557e-02  2.6708634490046398e-02  2.6427727869565248e-02  2.6141067512876863e-02  2.5881896684501676e-02  2.5522096265420461e-02  2.5259287679846872e-02  2.4816415712734231e-02  2.4576522755533261e-02  2.4070477387113754e-02  2.3799478234617529e-02  2.3238960212353246e-02  2.2967612792201813e-02  2.2359956867864583e-02  2.8586850514578110e-02  -3.6702565842878336e-02  -7.0617560528698817e-02  -1.0551719200636078e-02  -7.2598395239358519e-03  -8.2611800768151045e-03  -3.8074816931372248e-03  -4.8531679915344546e-03  -2.9607633001170149e-04  6.2944935849155732e-04  4.1605521966045188e-03  5.2058596179829809e-03  8.7093827448106384e-03  7.7614765705433554e-03  1.2298419309074013e-02  1.3104258100140103e-02  1.6800147184389096e-02  1.7592037790872782e