<?xml version="1.0"?>
<VTKFile type="UnstructuredGrid"  version="0.1"  >
<UnstructuredGrid>
<Piece  NumberOfPoints="2886" NumberOfCells="5412">
<Points>
<DataArray  type="Float64"  NumberOfComponents="3"  format="ascii">0 0.1 0  0.98 0.1 0  1 0.1 0  1 0 0  1.5 0 0  3 0 0  3 0.3 0  0 0.3 0  0.01975375321854102 0.1 0  0.03918897458218897 0.1 0  0.05831079002627837 0.1 0  0.07712425666319796 0.1 0  0.0956343475259058 0.1 0  0.1138459546796227 0.1 0  0.1317638870668193 0.1 0  0.1493928840275937 0.1 0  0.1667376092280033 0.1 0  0.1838026357802664 0.1 0  0.2005924801287244 0.1 0  0.2171115811543574 0.1 0  0.2333643037107681 0.1 0  0.2493549444060462 0.1 0  0.2650877293306821 0.1 0  0.2805668058011438 0.1 0  0.2957962848620976 0.1 0  0.3107801766802674 0.1 0  0.3255224447361181 0.1 0  0.3400269848175519 0.1 0  0.3542976327080778 0.1 0  0.3683381609158136 0.1 0  0.3821522744564845 0.1 0  0.3957436316838916 0.1 0  0.4091158196437086 0.1 0  0.4222723742184605 0.1 0  0.4352167733293057 0.1 0  0.4479524348643424 0.1 0  0.4604827295467524 0.1 0  0.4728109659990664 0.1 0  0.4849404035409129 0.1 0  0.4968742471455402 0.1 0  0.508615651843175 0.1 0  0.520167721130924 0.1 0  0.5315335063628542 0.1 0  0.5427160117228604 0.1 0  0.5537181940261912 0.1 0  0.564542961924507 0.1 0  0.575193173270606 0.1 0  0.5856716438765114 0.1 0  0.5959811458006617 0.1 0  0.6061243988680743 0.1 0  0.6161040893285659 0.1 0  0.6259228503970299 0.1 0  0.6355832809287655 0.1 0  0.6450879281079505 0.1 0  0.6544393102991295 0.1 0  0.663639896558931 0.1 0  0.6726921201956305 0.1 0  0.6815983691630338 0.1 0  0.6903610031396646 0.1 0  0.6989823343332418 0.1 0  0.7074646404270378 0.1 0  0.7158101645005117 0.1 0  0.7240211149852543 0.1 0  0.7320996585612525 0.1 0  0.7400479319727645 0.1 0  0.7478680336617921 0.1 0  0.755562036504958 0.1 0  0.7631319665092091 0.1 0  0.7705798279317605 0.1 0  0.777907588066146 0.1 0  0.7851171851013118 0.1 0  0.7922105226004981 0.1 0  0.7991894774550319 0.1 0  0.8060558928136696 0.1 0  0.812811583201334 0.1 0  0.8194583352091183 0.1 0  0.8259979035038147 0.1 0  0.8324320194413813 0.1 0  0.8387623808293405 0.1 0  0.8449906627004957 0.1 0  0.8511185094880469 0.1 0  0.8571475426008311 0.1 0  0.8630793533568246 0.1 0  0.8689155114558531 0.1 0  0.8746575581239063 0.1 0  0.8803070109173519 0.1 0  0.885865363938836 0.1 0  0.8913340851680313 0.1 0  0.8967146206523592 0.1 0  0.9020083930695622 0.1 0  0.9072167995950768 0.1 0  0.9123412183131177 0.1 0  0.9173830029719022 0.1 0  0.9223434865647732 0.1 0  0.9272239785872722 0.1 0  0.9320257720706087 0.1 0  0.9367501330378739 0.1 0  0.9413983102716995 0.1 0  0.9459715351562933 0.1 0  0.9504710127113115 0.1 0  0.9548979346500661 0.1 0  0.9592534708344373 0.1 0  0.9635387708980176 0.1 0  0.9677549682252325 0.1 0  0.971903177251235 0.1 0  0.9759844952956497 0.1 0  0.9840000000000086 0.1 0  0.987999999999974 0.1 0  0.9919999999999393 0.1 0  0.9959999999999913 0.1 0  1 0.09591793123533533 0  1 0.09133596463859224 0  1 0.08619288104391448 0  1 0.08041996484521211 0  1 0.07394008421771697 0  1 0.06666666567302955 0  1 0.05850252932209174 0  1 0.04933859630113544 0  1 0.03905242821848202 0  1 0.02750659386753798 0  1 0.01454683679239736 0  1.015625 0 0  1.03125 0 0  1.046875 0 0  1.0625 0 0  1.078125 0 0  1.09375 0 0  1.109375 0 0  1.125 0 0  1.140625 0 0  1.15625 0 0  1.171875 0 0  1.1875 0 0  1.203125 0 0  1.21875 0 0  1.234375 0 0  1.25 0 0  1.265625 0 0  1.28125 0 0  1.296875 0 0  1.3125 0 0  1.328125 0 0  1.34375 0 0  1.359375 0 0  1.375 0 0  1.390625 0 0  1.40625 0 0  1.421875 0 0  1.4375 0 0  1.453125 0 0  1.46875 0 0  1.484375 0 0  1.515920751924515 0 0  1.531989369316721 0 0  1.54820720925872 0 0  1.564575665560501 0 0  1.581096138674279 0 0  1.597770029901263 0 0  1.614598783332311 0 0  1.631583831055205 0 0  1.64872661129721 0 0  1.666028606716533 0 0  1.683491276608443 0 0  1.701116134125304 0 0  1.718904673324128 0 0  1.736858414799339 0 0  1.754978895814663 0 0  1.773267661782904 0 0  1.791726281103402 0 0  1.810356325314689 0 0  1.8291593848892 0 0  1.848137076690385 0 0  1.867291007717254 0 0  1.886622833871288 0 0  1.90613418642363 0 0  1.925826753299799 0 0  1.945702199101513 0 0  1.96576223584749 0 0  1.986008569283268 0 0  2.006442931928877 0 0  2.02706707547783 0 0  2.047882750887917 0 0  2.06889175187935 0 0  2.090095860038271 0 0  2.111496891648636 0 0  2.133096679109554 0 0  2.154897066851056 0 0  2.176899916687499 0 0  2.199107102752146 0 0  2.22152053937028 0 0  2.244142122958061 0 0  2.266973806444078 0 0  2.290017523268154 0 0  2.313275249499252 0 0  2.336748971745516 0 0  2.360440702338606 0 0  2.384352453384031 0 0  2.408486280477412 0 0  2.432844240041185 0 0  2.457428414757088 0 0  2.482240901796653 0 0  2.507283830121838 0 0  2.532559332080812 0 0  2.558069568787417 0 0  2.583816724966441 0 0  2.60980299606584 0 0  2.636030600971886 0 0  2.662501790984011 0 0  2.689218818279327 0 0  2.716183964547616 0 0  2.743399548861297 0 0  2.77086788244719 0 0  2.798591312896326 0 0  2.826572223178268 0 0  2.854812990138617 0 0  2.883316031690714 0 0  2.912083780657189 0 0  2.941118704633482 0 0  2.970423276998917 0 0  3 0.02999999999994495 0  3 0.05999999999987042 0  3 0.089999999999783 0  3 0.119999999999701 0  3 0.149999999999619 0  3 0.179999999999692 0  3 0.2099999999997737 0  3 0.2399999999998511 0  3 0.2699999999999185 0  2.970138294777171 0.3 0  2.940375666438236 0.3 0  2.910711782853056 0.3 0  2.881146331305122 0.3 0  2.851678975030285 0.3 0  2.822309388626621 0.3 0  2.793037250095074 0.3 0  2.76386223529133 0.3 0  2.734784017903872 0.3 0  2.705802289276642 0.3 0  2.676916713794697 0.3 0  2.648126987654635 0.3 0  2.619432780406184 0.3 0  2.590833779385199 0.3 0  2.562329669847737 0.3 0  2.533920134950189 0.3 0  2.505604855727852 0.3 0  2.477383539822502 0.3 0  2.449255847639465 0.3 0  2.421221492569094 0.3 0  2.393280152486815 0.3 0  2.36543151914496 0.3 0  2.337675285481809 0.3 0  2.310011142385583 0.3 0  2.282438797441587 0.3 0  2.254957931061538 0.3 0  2.227568248063605 0.3 0  2.200269436651085 0.3 0  2.173061204949961 0.3 0  2.145943251515011 0.3 0  2.118915272469994 0.3 0  2.091976978084957 0.3 0  2.065128060700849 0.3 0  2.038368218849433 0.3 0  2.01169717777258 0.3 0  1.985114624111908 0.3 0  1.958620267850966 0.3 0  1.93221382054972 0.3 0  1.905894991850698 0.3 0  1.879663489459713 0.3 0  1.853519019126419 0.3 0  1.827461291053897 0.3 0  1.801490031354372 0.3 0  1.775604937580312 0.3 0  1.74980572560258 0.3 0  1.724092118631866 0.3 0  1.698463829173586 0.3 0  1.672920575782554 0.3 0  1.647462076974085 0.3 0  1.622088043536933 0.3 0  1.5967981978949 0.3 0  1.571592267767068 0.3 0  1.546469970305736 0.3 0  1.521431023814044 0.3 0  1.496475156230927 0.3 0  1.471602093687753 0.3 0  1.446811560490646 0.3 0  1.422103279101731 0.3 0  1.397476971708191 0.3 0  1.37293238939876 0.3 0  1.348469231419202 0.3 0  1.324087248732772 0.3 0  1.299786165921677 0.3 0  1.275565710847046 0.3 0  1.251425617644257 0.3 0  1.227365618676339 0.3 0  1.203385446174014 0.3 0  1.179484853067473 0.3 0  1.155663548773374 0.3 0  1.131921292279077 0.3 0  1.108257802159295 0.3 0  1.084672829009693 0.3 0  1.061166115303374 0.3 0  1.037737392995421 0.3 0  1.01438640299116 0.3 0  0.991112899770314 0.3 0  0.9679166155523955 0.3 0  0.944797284182564 0.3 0  0.921754678526042 0.3 0  0.8987885143602501 0.3 0  0.8758985548820624 0.3 0  0.8530845484099929 0.3 0  0.8303462351786988 0.3 0  0.8076833651172373 0.3 0  0.7850956864865304 0.3 0  0.7625829601354557 0.3 0  0.7401449314598274 0.3 0  0.717781337993959 0.3 0  0.6954919649675473 0.3 0  0.6732765357561226 0.3 0  0.6511348120768439 0.3 0  0.6290665642016573 0.3 0  0.6070715355430467 0.3 0  0.5851494825775325 0.3 0  0.5633001690203812 0.3 0  0.5415233562273221 0.3 0  0.5198187909431873 0.3 0  0.4981862401387795 0.3 0  0.4766254686134248 0.3 0  0.4551362360485234 0.3 0  0.4337182975262159 0.3 0  0.4123714223228037 0.3 0  0.3910953802377493 0.3 0  0.3698899313205595 0.3 0  0.3487548463710963 0.3 0  0.3276898864081783 0.3 0  0.3066948129116018 0.3 0  0.2857694003037476 0.3 0  0.2649134227095047 0.3 0  0.2441266417321288 0.3 0  0.2234088223399122 0.3 0  0.2027597568977288 0.3 0  0.1821792020676698 0.3 0  0.1616669305402443 0.3 0  0.1412227158799362 0.3 0  0.12084633013886 0.3 0  0.1005375673448281 0.3 0  0.08029618164595353 0.3 0  0.06012194778526769 0.3 0  0.04001466495039718 0.3 0  0.01997408913631205 0.3 0  0 0.2800000000000553 0  0 0.2600000000001105 0  0 0.2400000000001658 0  0 0.2200000000002211 0  0 0.2000000000002764 0  0 0.1800000000002244 0  0 0.1600000000001691 0  0 0.140000000000115 0  0 0.1200000000000564 0  1.13346801534201 0.01255848438672509 0  1.003577645172735 0.09351054173913405 0  0.9777559943702486 0.1034978156913738 0  0.9524533750752109 0.1040889939962738 0  0.9296242411226409 0.1041520033606139 0  0.9046110503652111 0.104409422380137 0  0.8777709649694228 0.1053360318797398 0  0.8483859145648608 0.1061007868330701 0  0.8162363822948977 0.1052777104363292 0  0.7893110024210437 0.1060761643971561 0  0.7587949382612539 0.1067265405088633 0  0.7280603867732535 0.1069398153264939 0  0.6947001989413015 0.1075609887579097 0  0.6590363283767549 0.1076715322596598 0  0.6210028614493155 0.1072970410408442 0  1.1953125 0.01353164693413185 0  1.258193991486058 0.01269648635163345 0  1.3201967268638 0.01407907077719561 0  1.383538555392096 0.01434101079053473 0  1.445312500000001 0.01303671693628424 0  1.508925448095738 0.01398525724792267 0  0.9939176689634008 0.1034638089837981 0  1.120967497222226 0.2796788492172345 0  1.572835902117391 0.01424132418857359 0  1.637573277451887 0.01212536916586023 0  1.709730776795181 0.01466855431023635 0  1.005631976950563 0.07074019818158772 0  1.784944696816299 0.01454708406461822 0  0.5805605730631225 0.1101465090472147 0  1.855621181165637 0.01550931272897607 0  0.5366111276616774 0.1096761308243709 0  1.935200147913231 0.01760344159641829 0  1.214922267975168 0.2799787705802257 0  1.31178773425331 0.2792
[...]
<PointData  Scalars="pressure"> 
<DataArray  type="Float64"  Name="pressure"  format="ascii">1.5806071756967327e-01  -1.6566278811514856e-01  -2.1589422522991125e-01  -1.6154589551949847e-01  -4.1256385016870824e-02  0.0000000000000000e+00  0.0000000000000000e+00  1.5806785072971710e-01  1.5213459531543061e-01  1.4630396286589550e-01  1.4056725369560655e-01  1.3492294310476674e-01  1.2936951785429082e-01  1.2390549877078627e-01  1.1852945116959204e-01  1.1323990499386098e-01  1.0803546461782032e-01  1.0291474174941347e-01  9.7876331639979913e-02  9.2918885051061731e-02  8.8041087607992841e-02  8.3241577293574481e-02  7.8519056416363517e-02  7.3872310122422541e-02  6.9299944448850043e-02  6.4800766472107516e-02  6.0373534928433378e-02  5.6016951459727682e-02  5.1729852022063358e-02  4.7511107422981175e-02  4.3359370584538273e-02  3.9273561257108583e-02  3.5252394741513954e-02  3.1294772916611452e-02  2.7399652339094714e-02  2.3565765638739276e-02  1.9791935596624777e-02  1.6077115324062020e-02  1.2420176220200410e-02  8.8199282197019557e-03  5.2753788850601873e-03  1.7852977203389455e-03  -1.6513356447607000e-03  -5.0356951881117317e-03  -8.3688533223841496e-03  -1.1651492580462764e-02  -1.4885424333178828e-02  -1.8071270985157751e-02  -2.1210140909486096e-02  -2.4303317197691136e-02  -2.7351819544037072e-02  -3.0356093269345366e-02  -3.3318192998855238e-02  -3.6238607059653739e-02  -3.9118459992984994e-02  -4.1958889695322181e-02  -4.4760891755334917e-02  -4.7525518086982500e-02  -5.0253955549566416e-02  -5.2947144409065110e-02  -5.5606056430086419e-02  -5.8231650308627640e-02  -6.0825510775205420e-02  -6.3388027822779414e-02  -6.5920479768405080e-02  -6.8423531230485696e-02  -7.0899209471984873e-02  -7.3347958413956763e-02  -7.5770021662134618e-02  -7.8167152899570311e-02  -8.0540940301617236e-02  -8.2891089901564075e-02  -8.5219681242999168e-02  -8.7527454735612839e-02  -8.9814700546815465e-02  -9.2083021166817117e-02  -9.4333328067997171e-02  -9.6566560942102211e-02  -9.8784484084450952e-02  -1.0098719542049772e-01  -1.0317518988798396e-01  -1.0534912677422745e-01  -1.0751249864084068e-01  -1.0966440841865244e-01  -1.1180555323482734e-01  -1.1393784249117007e-01  -1.1606168895433126e-01  -1.1817807209115633e-01  -1.2028812129179527e-01  -1.2239375645851774e-01  -1.2449546219760896e-01  -1.2659349331694009e-01  -1.2869025654014901e-01  -1.3078667635928698e-01  -1.3288391592758406e-01  -1.3498338568127047e-01  -1.3708634576571724e-01  -1.3919448168557033e-01  -1.4130954460316303e-01  -1.4343349727239516e-01  -1.4556844432508181e-01  -1.4771591434047776e-01  -1.4987779194811038e-01  -1.5204356234441968e-01  -1.5441893426093442e-01  -1.5572451206589297e-01  -1.5941982123314044e-01  -1.5720762335753974e-01  -1.6212508945142382e-01  -1.5936255175498357e-01  -2.0333778034931277e-01  -1.8194185333433976e-01  -1.7536820561010499e-01  -1.7058293976333411e-01  -1.6735172763059578e-01  -1.6492674477817831e-01  -1.6311059592518459e-01  -1.6178043455684490e-01  -1.6098225082909159e-01  -1.6078753869295828e-01  -1.6119405995952502e-01  -1.6198639014692645e-01  -1.6236134878186054e-01  -1.6215612226943299e-01  -1.6148581911221613e-01  -1.6044106237356112e-01  -1.5906565538963269e-01  -1.5734474018559733e-01  -1.5526563905454505e-01  -1.5285749587856490e-01  -1.5013776463426895e-01  -1.4711053926340292e-01  -1.4378963940319900e-01  -1.4018625358550035e-01  -1.3631252427523310e-01  -1.3218887607795660e-01  -1.2782828500128129e-01  -1.2324320968193296e-01  -1.1845198111722757e-01  -1.1347344803394462e-01  -1.0831826826621259e-01  -1.0301620528739719e-01  -9.7585463548954865e-02  -9.2041856586487697e-02  -8.6415936110374597e-02  -8.0725967864963513e-02  -7.5001180052824717e-02  -6.9263725111056024e-02  -6.3535950894858237e-02  -5.7849217170078092e-02  -5.2224155066272038e-02  -4.6686451604494923e-02  -3.5858435953093487e-02  -3.0577133103545068e-02  -2.5421878651586707e-02  -2.0426453995109801e-02  -1.5617508626437779e-02  -1.0997225412171676e-02  -6.5921793592498079e-03  -2.4076005168942420e-03  1.5081034931477262e-03  5.1786940513916810e-03  8.6037999964620610e-03  1.1762337438646372e-02  1.4656457493708546e-02  1.7293026917154307e-02  1.9675876598949118e-02  2.1809963914946117e-02  2.3710507759596603e-02  2.5377970801561896e-02  2.6826530981581439e-02  2.8086526521673764e-02  2.9146461191037507e-02  3.0036292578757645e-02  3.0769528326730945e-02  3.1354135293690827e-02  3.1811395525333012e-02  3.2145643931449371e-02  3.2387975198035955e-02  3.2528825578264163e-02  3.2589121807403761e-02  3.2573709274364787e-02  3.2490326580313582e-02  3.2348355990549332e-02  3.2157017708682456e-02  3.1920373997675146e-02  3.1639099655216295e-02  3.1320366796024776e-02  3.0964807232382659e-02  3.0575118469761815e-02  3.0152328246419474e-02  2.9696809240831193e-02  2.9208900931397892e-02  2.8688486530689280e-02  2.8134280905247049e-02  2.7546579285043959e-02  2.6922826422478126e-02  2.6261686735896642e-02  2.5564296905953885e-02  2.4825784455116011e-02  2.4044180968701447e-02  2.3223923939397505e-02  2.2355420239195921e-02  2.1445816200471833e-02  2.0484584671121620e-02  1.9480648076176704e-02  1.8426204144683614e-02  1.7317498089279286e-02  1.6165043486954168e-02  1.4954653655017065e-02  1.3697732154169312e-02  1.2388181494292843e-02  1.1025003325980430e-02  9.6081847106797118e-03  8.1398604013382218e-03  6.6232193030789470e-03  5.0488595826898679e-03  3.4343513735341767e-03  1.7635235185457731e-03  0.0000000000000000e+00  0.0000000000000000e+00  0.0000000000000000e+00  0.0000000000000000e+00  0.0000000000000000e+00  0.0000000000000000e+00  0.0000000000000000e+00  0.0000000000000000e+00  0.0000000000000000e+00  1.9119651789059331e-03  3.6968251783160030e-03  5.4539232365340713e-03  7.1580049858629858e-03  8.8128214800228966e-03  1.0417066185142213e-02  1.1969788268848170e-02  1.3469261662525369e-02  1.4912620601167157e-02  1.6297640148810813e-02  1.7620317279004587e-02  1.8878160771477193e-02  2.0066111012711989e-02  2.1181171500245358e-02  2.2218525442973536e-02  2.3171580545015016e-02  2.4039973204824951e-02  2.4812592964789461e-02  2.5484799736020417e-02  2.6050465677755229e-02  2.6502748661019915e-02  2.6835040730623684e-02  2.7041699388549872e-02  2.7111957510935269e-02  2.7044313181967018e-02  2.6826967024836338e-02  2.6457801457343423e-02  2.5925481575245952e-02  2.5224907425036053e-02  2.4353426694989799e-02  2.3300306444260288e-02  2.2060069867001365e-02  2.0647661185623320e-02  1.9048708836835255e-02  1.7237255179142680e-02  1.5253324717285138e-02  1.3073886383985383e-02  1.0699562156880870e-02  8.1318510457327048e-03  5.3783729930764390e-03  2.4302121741700093e-03  -6.9878086049177156e-04  -4.0170510540537413e-03  -7.5139700697417879e-03  -1.1200708655794346e-02  -1.5061259867982313e-02  -1.9096888622639186e-02  -2.3298305046027836e-02  -2.7668760362661710e-02  -3.2194038056334799e-02  -3.6871175101481996e-02  -4.1688526923035422e-02  -4.6632485777856551e-02  -5.1694252659070822e-02  -5.6858007716640312e-02  -6.2099994838959199e-02  -6.7360984050682152e-02  -7.2687718322986497e-02  -7.7994916156674199e-02  -8.3223322405531000e-02  -8.8377170305915770e-02  -9.3385135372479042e-02  -9.8228431268167299e-02  -1.0280151460616198e-01  -1.0709828771171470e-01  -1.1101000916860827e-01  -1.1452499456831440e-01  -1.1753333287717815e-01  -1.2003956773362150e-01  -1.2191194155993335e-01  -1.2316597701402775e-01  -1.2372980968848744e-01  -1.2347523352920392e-01  -1.2257356177432542e-01  -1.2088938388814205e-01  -1.1843056076615527e-01  -1.1531449013590979e-01  -1.1156455322518517e-01  -1.0730679134507823e-01  -1.0261046345767329e-01  -9.7475846596929275e-02  -9.2039717552511779e-02  -8.6341490629216269e-02  -8.0474173025753784e-02  -7.4442350946446384e-02  -6.8274230954432288e-02  -6.2022424503040192e-02  -5.5700050656744562e-02  -4.9318326074593140e-02  -4.2900925593190885e-02  -3.6452990461617145e-02  -2.9992901407697010e-02  -2.3523587605577528e-02  -1.7047653641214737e-02  -1.0576549901435441e-02  -4.1115146288367216e-03  2.3462227276963769e-03  8.7931872062912333e-03  1.5226280052427717e-02  2.1644346608126731e-02  2.8046864450601304e-02  3.4432306349891723e-02  4.0800481548960939e-02  4.7149788690342836e-02  5.3480578395129950e-02  5.9792130274036986e-02  6.6084173362717769e-02  7.2356613213256371e-02  7.8609143256215805e-02  8.4841714373832436e-02  9.1054292129261125e-02  9.7246781189011519e-02  1.0341915601301248e-01  1.0957141732904468e-01  1.1570357697100339e-01  1.2181561435466520e-01  1.2790760020476408e-01  1.3397955567374717e-01  1.4003151010861911e-01  1.4606351784722069e-01  1.5207561424766333e-01  1.5806782315173193e-01  1.5806752659453041e-01  1.5806680247856372e-01  1.5806566589606660e-01  1.5806428537521819e-01  1.5806290343020213e-01  1.5806176447236575e-01  1.5806103553068754e-01  1.5806074003707971e-01  -1.5369905887541843e-01  -1.8641653439926134e-01  -1.5814505224598865e-01  -1.4453243833884477e-01  -1.3403480061714909e-01  -1.2352143155550185e-01  -1.1304863479187155e-01  -1.0225428115127842e-01  -9.1018881145394123e-02  -8.1960316669314151e-02  -7.1968063708736513e-02  -6.2124243180122142e-02  -5.1623078439149157e-02  -4.0547175259856787e-02  -2.8856826156416753e-02  -1.4184639356665887e-01  -1.2541148038045563e-01  -1.0580585499734113e-01  -8.3509295413324608e-02  -6.0960736117672033e-02  -3.8584445863652429e-02  -1.7072869574212726e-01  -1.2196016288624995e-01  -1.8408591222895138e-02  -1.3868002153630391e-03  1.2798509572373796e-02  -1.6682922989522148e-01  2.2697900665770477e-02  -1.6522736240190825e-02  2.8232243390205927e-02  -3.1913914385154271e-03  3.1358855847414560e-02  -1.1220648815729978e-01  -9.5175944985678357e-02  3.2441187853418506e-02  -7.4907747295749186e-02  1.0620321734308054e-02  -4.8761176961597028e-02  3.2164108346200260e-02  2.5481262705576543e-02  -1.5926926264189167e-01  3.1071043375191676e-02  -2.5252230828452068e-02  -1.2256313969460694e-01  4.0884298866707199e-02  2.9401840517268078e-02  -2.3007037076696580e-03  5.8382171657046567e-02  6.6194075407766725e-03  2.7169793622306568e-02  1.4263624118525664e-02  7.5673297205332835e-02  -1.1657862281863739e-01  2.4448024480394147e-02  1.9836788096968538e-02  -1.0484861126489411e-01  2.3833967281702284e-02  2.0945128471969367e-02  -8.9185892322392255e-02  9.5873489044095039e-02  1.0989059620727835e-01  -1.3021683786853169e-02  1.7840995946927236e-02  1.4153265093738650e-02  2.6120720238135102e-02  -7.1564215177941065e-02  2.6973105803407924e-02  -1.5093935416037577e-01  -4.6551430411996678e-02  2.6177634483598895e-02  1.2734238762688585e-01  -2.6796621168700085e-02  1.0287962935069261e-02  2.3539153214934085e-02  -7.2233293127913593e-03  1.8602426365398307e-02  2.0556108738323552e-02  5.0315809625511257e-02  1.6901050420279923e-02  6.9276681087536193e-02  8.8053997334849393e-02  1.2676059502727977e-02  1.1965392496418856e-01  1.6025968858196494e-03  1.5248432109320675e-01  -1.6197952222631926e-01  8.0812995667844997e-03  5.7139913321581151e-03  1.3745652711649448e-01  -1.7337701686261955e-01  -1.6132793178351443e-01  -1.1818343421708373e-01  -5.8768730933615010e-02  5.0758931002799802e-03  3.0907411853861609e-02  1.3779663515444218e-01  -3.9397526041110804e-02  -6.4013627677528773e-02  -8.5173876130467230e-02  -1.0429162029858426e-01  8.5935812409817666e-02  2.6836918163169788e-02  6.6762551856397886e-02  1.0029552618931541e-01  2.5062175974538893e-02  2.2782326745177217e-02  4.9060491650913661e-02  2.5805482249584327e-02  2.8368206325774567e-02  3.3522803844671656e-02  3.0304021151392614e-02  3.1702641271944873e-02  3.2432160022772556e-02  3.2133474962982807e-02  -2.8363530042663825e-02  1.7932771829271856e-02  3.0103135913821567e-02  2.5798986024179852e-02  3.5471027083149227e-03  1.8359573226345158e-02  6.5149963833671725e-03  -9.0328107184443566e-03  1.3372609817732569e-03  -1.0374269028817221e-02  -2.2309723911203654e-02  1.5282415824171780e-01  -3.4469098543895918e-02  -4.6154892963026148e-02  -5.6934672814859748e-02  -6.7285380966422698e-02  -7.7044161730477359e-02  -8.6299979614200828e-02  -1.4824117437514930e-01  -9.7720120303002964e-02  -1.0864199391042663e-01  -1.1930614145267732e-01  -1.3418820754983848e-01  -1.2989833831918976e-01  -9.5147691724461636e-02  -1.1550601585684794e-01  -7.3203819245083221e-02  -4.9766151741354687e-02  -1.4036620109572778e-01  -1.5979196007940341e-01  1.6803962581510474e-03  1.5232749068872459e-01  4.5047076932725498e-03  -1.6175759939185902e-01  1.5307609702261546e-01  1.3638027787997776e-03  1.4897183415237880e-01  -1.6172548204075834e-01  -1.6138711406752315e-01  -1.6092751916354592e-01  -1.6142793531930963e-01  -1.6095068364298379e-01  -1.6177903251159226e-01  -1.6112065542307544e-01  -1.6223329234339787e-01  -1.6140437287010034e-01  -1.6255482706805277e-01  -1.6160719845734209e-01  -1.6248109233578090e-01  -1.6133828095269581e-01  -1.6184851355897426e-01  -1.6056840709772091e-01  -1.6076138278508506e-01  -1.5930614804385959e-01  -1.5927953355361762e-01  -1.5765584159422141e-01  -1.5723626807181643e-01  -1.5531113421999743e-01  -1.5891310531589412e-01  -1.5583127239841704e-01  -1.5310095399433615e-01  -1.5619224838238255e-01  -1.5813908258643652e-01  -1.5339134607549351e-01  -1.5052082113389531e-01  -1.5073325271068377e-01  -1.4750061790746283e-01  -1.4759552002449819e-01  -1.4404555790009307e-01  -1.4405742180998546e-01  -1.4043671653932505e-01  -1.4011581439673534e-01  -1.3577071130828822e-01  -1.3555521940451740e-01  -1.3138864880205606e-01  -1.3075309752542094e-01  -1.2642823178593016e-01  -1.2555502256937107e-01  -1.2114443834191188e-01  -1.2004707937416161e-01  -1.1559837988476038e-01  -1.1423766688547655e-01  -1.0981989612575530e-01  -1.0816075999079533e-01  -1.0382466338186665e-01  -1.0188090505595726e-01  -9.7691745159223006e-02  -9.5412331757319210e-02  -9.1458798877656483e-02  -8.8726146389971366e-02  -1.5433902128608501e-01  -1.5610156451481030e-01  -8.5143229030404374e-02  -8.1990056529177985e-02  -7.8825367423204437e-02  -7.5679430063086542e-02  -7.2599591718522774e-02  -6.9107480542115463e-02  -6.6471497163265766e-02  -6.2657820322095367e-02  -1.4941356578963189e-01  -6.0554140287204725e-02  -5.6322059436201118e-02  -5.4550165070640089e-02  -5.0116914421779513e-02  -4.8955606603995609e-02  -4.4191145570256538e-02  -1.5150482337661889e-01  -1.5340192426797147e-01  -1.6298057432749408e-01  -4.3501326502428862e-02  -3.8459029839855288e-02  -3.8321124036633181e-02  -3.3007223548688645e-02  -3.3395852041075612e-02  -2.7867258530026744e-02  -1.5942275992699403e-01  -2.8743483673876542e-02  -2.3006858525712760e-02  -1.3973901693083099e-01  -2.4349962198224582e-02  -1.8473195597812329e-02  -2.0247126982391339e-02  -1.4258724256506455e-02  -1.6353338301116346e-02  -1.0354275926333740e-02  -1.5993511073154579e-01  -1.2633310044055157e-01  -1.2791542711547232e-02  -6.7609203128723540e-03  -1.4772650925283998e-01  -1.4889739302082647e-01  -1.4618236611933189e-01  -1.1050296548974460e-01  -9.4200438437983917e-03  -3.3189441703638358e-03  -6.3895628003537569e-03  -2.2865967266036516e-04  -3.5102928947630401e-03  2.4478414145332802e-03  -3.9263324112494551e-02  -5.5824528402434296e-04  -2.2386907026103797e-02  -5.8541624569360851e-02  -8.4274915471829520e-04  4.9017473135217560e-03  8.1835150672469083e-03  1.0482766406674188e-02  7.1975038724355206e-03  1.2557308160721167e-02  9.3624780503673254e-03  1.4494153949253330e-02  1.1317145164093977e-02  1.6181819359559473e-02  1.3107571210733946e-02  1.7737045973103330e-02  1.4792559711981174e-02  1.9104275626936403e-02  1.6254147090909908e-02  2.0353769272232290e-02  1.7714346091950883e-02  2.1595035636867321e-02  1.9018422457751004e-02  2.2615129141436222e-02  2.0247016779823886e-02  2.3502135860323261e-02  2.1230782914065938e-02  2.4309900247942412e-02  -7.8559900251670034e-02  -9.3516353229810861e-02  2.2236437593846317e-02  2.4992223333693470e-02  2.3189997919518347e-02  2.5641201589269660e-02  -1.4684769709340831e-01  -1.1208529213560615e-01  2.4039575018247668e-02  2.6177903590421915e-02  -1.2920859793158299e-01  -7.6213374445829069e-02  -1.4304004915726598e-01  -1.4377957575029293e-01  -1.5039129761648823e-01  -1.4414424642555246e-01  -1.4965606996952879e-01  -1.4378078106186262e-01  -1.4957418319330737e-01  -1.4286744713169341e-01  -1.4689201026924198e-01  -1.4094943783486213e-01  -1.4506386629284981e-01  -1.3863933840483045e-01  -1.4122446109372744e-01  -1.3568032707938399e-01  -1.3757651570990032e-01  -1.3253743991492939e-01  -1.3380929505647249e-01  -1.2912885700565299e-01  -1.2998374892023123e-01  -1.2563655642490826e-01  -1.2612024526536234e-01  -1.2204598775869301e-01  -1.2227135720935671e-01  -1.1842852626197885e-01  -1.1843228057447260e-01  -1.1483374709444932e-01  -1.1428607040980368e-01  -1.1095735899367805e-01  -1.1115225101600468e-01  -1.0754156058765608e-01  -1.0727184787950912e-01  -1.0393188536024507e-01  -1.0367856962885331e-01  -1.0036586887276773e-01  -9.9854839096121251e-02  -9.6738994095310810e-02  -1.3044854711309090e-01  -1.0727369368908674e-01  -1.2113019143563840e-01  -9.6163836525534035e-02  -9.3033771883977781e-02  -9.3374105615753086e-02  -8.9840031658599467e-02  -8.9288065101352357e-02  -8.6224547292728118e-02  -8.5497662872739896e-02  -8.2554250891430356e-02  -8.1722824991200899e-02  -7.8827395211077220e-02  -8.6041874604159144e-02  -1.5473791421612812e-01  -1.4658125516458498e-01  -7.8009117803788275e-02  -7.5043689481244291e-02  -7.5821631107559365e-02  -7.2042800731944884e-02  -7.1236157029381214e-02  -6.8282749030434811e-02  -6.7372267810409586e-02  -6.4497836569959902e-02  -1.3846376382247313e-01  -6.8827750038651159e-02  -6.3531846346370421e-02  -6.0727272085807436e-02  -1.3011156323694270e-01  -5.9805617930765068e-02  -5.6901331485196209e-02  -5.8096841901189238e-02  -5.3949343786708098e-02  -5.2966384734800018e-02  -4.9901790624090087e-02  -5.0844312891593857e-02  -4.6797886713869113e-02  -4.5872101823057967e-02  -4.2760446376755912e-02  -4.1827169387388313e-02  -3.8629993282393617e-02  -3.9588967691762296e-02  -3.5461174285655789e-02  -3.4473756807696203e-02  -3.1329268457995718e-02  -3.0381700354216286e-02  -2.7215515713700050e-02  -1.3872365375854112e-01  -1.0693826057302518e-01  -1.2189880883423705e-01  -2.6362741230715716e-02  -2.3134156115875097e-02  -2.3999516131164619e-02  -1.9764372289797688e-02  -1.8905031274559194e-02  -1.5535429528794744e-02  -2.0628633977891057e-02  2.4715150762500374e-02  2.6625915232597212e-02  2.5330846209988996e-02  2.7006108067762692e-02  2.5880897554711721e-02  2.7313897409226021e-02  -8.8593004277577367e-02  -4.8499489369403868e-02  -1.6280195972452036e-01  -1.4644893093644130e-02  -1.1342131935079358e-02  -9.9165019974904636e-02  2.2120079871380129e-02  2.6371129892049833e-02  1.3231778220255086e-02  2.6339512272065942e-02  2.7540545847679451e-02  2.8601345269128373e-02  2.8608603417835800e-02  2.7692203785508532e-02  2.8562981862568837e-02  2.7776426758171918e-02  2.8458024455280655e-02  2.7777943758327674e-02  2.8285572590842009e-02  2.7707107932037373e-02  2.8054870512009243e-02  2.7552343762858162e-02  2.7752336004406759e-02  2.7321212583916107e-02  2.7390157456799326e-02  2.7017399804476060e-02  2.6966373503066750e-02  2.6644239276939229e-02  2.6483441897237250e-02  2.6191342692367104e-02  2.5926090483291784e-02  2.5656660185011664e-02  2.5317414713648206e-02  2.5044888444608816e-02  2.4621766489136970e-02  2.4373287113079335e-02  2.3886066771543694e-02  2.3607981984702323e-02  2.3064724196663871e-02  2.2786139272861029e-02  2.2195844181083443e-02  2.8209695224021034e-02  -3.6487484809318432e-02  -7.0361511712472402e-02  -1.0329836070261309e-02  -7.0396338223496242e-03  -8.0429662145671786e-03  -3.5888743417355940e-03  -4.6366130979659352e-03  -7.8915142391078596e-05  8.4833911458963697e-04  4.3781618551177988e-03  5.4249141607696028e-03  8.9273222342559477e-03  7.9779782866443993e-03  1.2515366875094356e-02  1.3322409635141780e-02  1.7017428524871505e-02  1.781029762506211