<?xml version="1.0"?>
<VTKFile type="UnstructuredGrid"  version="0.1"  >
<UnstructuredGrid>
<Piece  NumberOfPoints="2705" NumberOfCells="5060">
<Points>
<DataArray  type="Float64"  NumberOfComponents="3"  format="ascii">0 0.1 0  0.98 0.1 0  1 0.1 0  1 0 0  3 0 0  3 0.3 0  0 0.3 0  0.01975375321854102 0.1 0  0.03918897458218897 0.1 0  0.05831079002627837 0.1 0  0.07712425666319796 0.1 0  0.0956343475259058 0.1 0  0.1138459546796227 0.1 0  0.1317638870668193 0.1 0  0.1493928840275937 0.1 0  0.1667376092280033 0.1 0  0.1838026357802664 0.1 0  0.2005924801287244 0.1 0  0.2171115811543574 0.1 0  0.2333643037107681 0.1 0  0.2493549444060462 0.1 0  0.2650877293306821 0.1 0  0.2805668058011438 0.1 0  0.2957962848620976 0.1 0  0.3107801766802674 0.1 0  0.3255224447361181 0.1 0  0.3400269848175519 0.1 0  0.3542976327080778 0.1 0  0.3683381609158136 0.1 0  0.3821522744564845 0.1 0  0.3957436316838916 0.1 0  0.4091158196437086 0.1 0  0.4222723742184605 0.1 0  0.4352167733293057 0.1 0  0.4479524348643424 0.1 0  0.4604827295467524 0.1 0  0.4728109659990664 0.1 0  0.4849404035409129 0.1 0  0.4968742471455402 0.1 0  0.508615651843175 0.1 0  0.520167721130924 0.1 0  0.5315335063628542 0.1 0  0.5427160117228604 0.1 0  0.5537181940261912 0.1 0  0.564542961924507 0.1 0  0.575193173270606 0.1 0  0.5856716438765114 0.1 0  0.5959811458006617 0.1 0  0.6061243988680743 0.1 0  0.6161040893285659 0.1 0  0.6259228503970299 0.1 0  0.6355832809287655 0.1 0  0.6450879281079505 0.1 0  0.6544393102991295 0.1 0  0.663639896558931 0.1 0  0.6726921201956305 0.1 0  0.6815983691630338 0.1 0  0.6903610031396646 0.1 0  0.6989823343332418 0.1 0  0.7074646404270378 0.1 0  0.7158101645005117 0.1 0  0.7240211149852543 0.1 0  0.7320996585612525 0.1 0  0.7400479319727645 0.1 0  0.7478680336617921 0.1 0  0.755562036504958 0.1 0  0.7631319665092091 0.1 0  0.7705798279317605 0.1 0  0.777907588066146 0.1 0  0.7851171851013118 0.1 0  0.7922105226004981 0.1 0  0.7991894774550319 0.1 0  0.8060558928136696 0.1 0  0.812811583201334 0.1 0  0.8194583352091183 0.1 0  0.8259979035038147 0.1 0  0.8324320194413813 0.1 0  0.8387623808293405 0.1 0  0.8449906627004957 0.1 0  0.8511185094880469 0.1 0  0.8571475426008311 0.1 0  0.8630793533568246 0.1 0  0.8689155114558531 0.1 0  0.8746575581239063 0.1 0  0.8803070109173519 0.1 0  0.885865363938836 0.1 0  0.8913340851680313 0.1 0  0.8967146206523592 0.1 0  0.9020083930695622 0.1 0  0.9072167995950768 0.1 0  0.9123412183131177 0.1 0  0.9173830029719022 0.1 0  0.9223434865647732 0.1 0  0.9272239785872722 0.1 0  0.9320257720706087 0.1 0  0.9367501330378739 0.1 0  0.9413983102716995 0.1 0  0.9459715351562933 0.1 0  0.9504710127113115 0.1 0  0.9548979346500661 0.1 0  0.9592534708344373 0.1 0  0.9635387708980176 0.1 0  0.9677549682252325 0.1 0  0.971903177251235 0.1 0  0.9759844952956497 0.1 0  0.9840000000000086 0.1 0  0.987999999999974 0.1 0  0.9919999999999393 0.1 0  0.9959999999999913 0.1 0  1 0.09591793123533533 0  1 0.09133596463859224 0  1 0.08619288104391448 0  1 0.08041996484521211 0  1 0.07394008421771697 0  1 0.06666666567302955 0  1 0.05850252932209174 0  1 0.04933859630113544 0  1 0.03905242821848202 0  1 0.02750659386753798 0  1 0.01454683679239736 0  1.016020550394751 0 0  1.032153385236268 0 0  1.048399294954455 0 0  1.064759072477566 0 0  1.081233515533994 0 0  1.097823427949778 0 0  1.114529617202262 0 0  1.131352900433151 0 0  1.148294101583001 0 0  1.165354040242892 0 0  1.182533552515274 0 0  1.199833475866261 0 0  1.217254652230041 0 0  1.234797936155386 0 0  1.252464178425587 0 0  1.270254255168802 0 0  1.288169006479837 0 0  1.306209325437119 0 0  1.324376095845444 0 0  1.342670189274758 0 0  1.36109251192469 0 0  1.379643952662183 0 0  1.398325417002887 0 0  1.41713782425084 0 0  1.436082080652155 0 0  1.455159124826087 0 0  1.474369882349725 0 0  1.493715277083147 0 0  1.513196265767424 0 0  1.532813806019548 0 0  1.552568842185085 0 0  1.572462339217603 0 0  1.592495269056204 0 0  1.612668607023916 0 0  1.632983343549927 0 0  1.653440462592259 0 0  1.674040969525434 0 0  1.694785855791528 0 0  1.715676155173469 0 0  1.73671286736412 0 0  1.757897026351256 0 0  1.779229664888713 0 0  1.800711824755784 0 0  1.82234455324737 0 0  1.84412890624001 0 0  1.866065945376083 0 0  1.888156733760833 0 0  1.910402369606354 0 0  1.93280391688052 0 0  1.955362477143487 0 0  1.978079144436244 0 0  2.000955036197599 0 0  2.023991269446432 0 0  2.047188964767926 0 0  2.0705492490968 0 0  2.094073263768322 0 0  2.117762156205791 0 0  2.141617082624289 0 0  2.16563921705895 0 0  2.189829717267639 0 0  2.214189770072521 0 0  2.238720556051706 0 0  2.263423288009975 0 0  2.288299155588418 0 0  2.313349376228164 0 0  2.338575176964319 0 0  2.363977783618623 0 0  2.389558433680938 0 0  2.415318384393194 0 0  2.441258882154933 0 0  2.467381196024248 0 0  2.493686599690135 0 0  2.520176385407638 0 0  2.546851827526312 0 0  2.573714242586076 0 0  2.600764942577301 0 0  2.628005231328753 0 0  2.655436452882501 0 0  2.683059932630583 0 0  2.710877029970518 0 0  2.73888909859219 0 0  2.767097496229523 0 0  2.79550361535459 0 0  2.824108829114479 0 0  2.852914536031111 0 0  2.881922140827726 0 0  2.911133056443728 0 0  2.940548720418847 0 0  2.970170550362583 0 0  3 0.02999999999994495 0  3 0.05999999999987042 0  3 0.089999999999783 0  3 0.119999999999701 0  3 0.149999999999619 0  3 0.179999999999692 0  3 0.2099999999997737 0  3 0.2399999999998511 0  3 0.2699999999999185 0  2.970138294777171 0.3 0  2.940375666438236 0.3 0  2.910711782853056 0.3 0  2.881146331305122 0.3 0  2.851678975030285 0.3 0  2.822309388626621 0.3 0  2.793037250095074 0.3 0  2.76386223529133 0.3 0  2.734784017903872 0.3 0  2.705802289276642 0.3 0  2.676916713794697 0.3 0  2.648126987654635 0.3 0  2.619432780406184 0.3 0  2.590833779385199 0.3 0  2.562329669847737 0.3 0  2.533920134950189 0.3 0  2.505604855727852 0.3 0  2.477383539822502 0.3 0  2.449255847639465 0.3 0  2.421221492569094 0.3 0  2.393280152486815 0.3 0  2.36543151914496 0.3 0  2.337675285481809 0.3 0  2.310011142385583 0.3 0  2.282438797441587 0.3 0  2.254957931061538 0.3 0  2.227568248063605 0.3 0  2.200269436651085 0.3 0  2.173061204949961 0.3 0  2.145943251515011 0.3 0  2.118915272469994 0.3 0  2.091976978084957 0.3 0  2.065128060700849 0.3 0  2.038368218849433 0.3 0  2.01169717777258 0.3 0  1.985114624111908 0.3 0  1.958620267850966 0.3 0  1.93221382054972 0.3 0  1.905894991850698 0.3 0  1.879663489459713 0.3 0  1.853519019126419 0.3 0  1.827461291053897 0.3 0  1.801490031354372 0.3 0  1.775604937580312 0.3 0  1.74980572560258 0.3 0  1.724092118631866 0.3 0  1.698463829173586 0.3 0  1.672920575782554 0.3 0  1.647462076974085 0.3 0  1.622088043536933 0.3 0  1.5967981978949 0.3 0  1.571592267767068 0.3 0  1.546469970305736 0.3 0  1.521431023814044 0.3 0  1.496475156230927 0.3 0  1.471602093687753 0.3 0  1.446811560490646 0.3 0  1.422103279101731 0.3 0  1.397476971708191 0.3 0  1.37293238939876 0.3 0  1.348469231419202 0.3 0  1.324087248732772 0.3 0  1.299786165921677 0.3 0  1.275565710847046 0.3 0  1.251425617644257 0.3 0  1.227365618676339 0.3 0  1.203385446174014 0.3 0  1.179484853067473 0.3 0  1.155663548773374 0.3 0  1.131921292279077 0.3 0  1.108257802159295 0.3 0  1.084672829009693 0.3 0  1.061166115303374 0.3 0  1.037737392995421 0.3 0  1.01438640299116 0.3 0  0.991112899770314 0.3 0  0.9679166155523955 0.3 0  0.944797284182564 0.3 0  0.921754678526042 0.3 0  0.8987885143602501 0.3 0  0.8758985548820624 0.3 0  0.8530845484099929 0.3 0  0.8303462351786988 0.3 0  0.8076833651172373 0.3 0  0.7850956864865304 0.3 0  0.7625829601354557 0.3 0  0.7401449314598274 0.3 0  0.717781337993959 0.3 0  0.6954919649675473 0.3 0  0.6732765357561226 0.3 0  0.6511348120768439 0.3 0  0.6290665642016573 0.3 0  0.6070715355430467 0.3 0  0.5851494825775325 0.3 0  0.5633001690203812 0.3 0  0.5415233562273221 0.3 0  0.5198187909431873 0.3 0  0.4981862401387795 0.3 0  0.4766254686134248 0.3 0  0.4551362360485234 0.3 0  0.4337182975262159 0.3 0  0.4123714223228037 0.3 0  0.3910953802377493 0.3 0  0.3698899313205595 0.3 0  0.3487548463710963 0.3 0  0.3276898864081783 0.3 0  0.3066948129116018 0.3 0  0.2857694003037476 0.3 0  0.2649134227095047 0.3 0  0.2441266417321288 0.3 0  0.2234088223399122 0.3 0  0.2027597568977288 0.3 0  0.1821792020676698 0.3 0  0.1616669305402443 0.3 0  0.1412227158799362 0.3 0  0.12084633013886 0.3 0  0.1005375673448281 0.3 0  0.08029618164595353 0.3 0  0.06012194778526769 0.3 0  0.04001466495039718 0.3 0  0.01997408913631205 0.3 0  0 0.2800000000000553 0  0 0.2600000000001105 0  0 0.2400000000001658 0  0 0.2200000000002211 0  0 0.2000000000002764 0  0 0.1800000000002244 0  0 0.1600000000001691 0  0 0.140000000000115 0  0 0.1200000000000564 0  1.139147342155451 0.01402312796110374 0  1.003846432965526 0.09424410338552042 0  0.9779237415493457 0.10303715329271 0  0.9525322729471357 0.1037883113413676 0  0.9297268847131464 0.1045730213771781 0  0.9046089814431624 0.104336569409788 0  0.877471620806838 0.1038902524152954 0  0.8484650538876116 0.1052432520737866 0  0.8159640469246969 0.1059371394421246 0  0.7886638538509052 0.1060934813339016 0  0.7587098578963086 0.1078079872398564 0  0.7267218807318911 0.1066246423921731 0  0.6933049262001144 0.1065261986562333 0  0.6579684410383846 0.1078243939978959 0  0.6214208701021879 0.1087048760815267 0  0.9941749516486179 0.1037853116611355 0  1.120978489398116 0.279674477539142 0  1.208544064048151 0.01503467720016028 0  1.277910333952869 0.01779594515292307 0  1.351715717346224 0.01850593010538557 0  1.427966398080389 0.0186283585208804 0  1.50319238505989 0.01550695005010656 0  0.5804324085735586 0.1090014561521007 0  1.005955353234479 0.07030337494537306 0  1.582478804136902 0.01728864997636526 0  0.5372897138364388 0.1092087118973372 0  1.663740716058847 0.0177784735569346 0  0.4914692535170423 0.110729061919444 0  1.747243287282295 0.01944243088977818 0  1.238974330067154 0.2790657993464123 0  1.834291106016765 0.02121111407792533 0  0.44060840912
[...]
<PointData  Scalars="pressure"> 
<DataArray  type="Float64"  Name="pressure"  format="ascii">9.0712162762730822e-02  -2.3147596467922643e-01  -2.7700680202255185e-01  -2.2584504699659116e-01  0.0000000000000000e+00  0.0000000000000000e+00  9.0718235334039748e-02  8.4786037804929978e-02  7.8955412930102067e-02  7.3218731186933658e-02  6.7574458279362162e-02  6.2021096609102197e-02  5.6557170140247602e-02  5.1181200400842286e-02  4.5891803412937700e-02  4.0687502248385903e-02  3.5566958933932087e-02  3.0528796646130969e-02  2.5571602431566042e-02  2.0694094354363420e-02  1.5894957072696558e-02  1.1172842132116063e-02  6.5265200697801791e-03  1.9547231202134462e-03  -2.5439003533030795e-03  -6.9704659596941916e-03  -1.1326255609322334e-02  -1.5612537502629057e-02  -1.9830380683509820e-02  -2.3981099531961859e-02  -2.8065787805369873e-02  -3.2085613345709876e-02  -3.6041791632473626e-02  -3.9935438201115565e-02  -4.3767701755476729e-02  -4.7539683036449613e-02  -5.1252520142392746e-02  -5.4907377433379707e-02  -5.8505282976349764e-02  -6.2047405232560776e-02  -6.5534808569260208e-02  -6.8968606933537444e-02  -7.2349943612552703e-02  -7.5679826273156392e-02  -7.8959442511191136e-02  -8.2189741279720091e-02  -8.5371964838933417e-02  -8.8507054141345048e-02  -9.1596255999080861e-02  -9.4640470925272377e-02  -9.7640886834941779e-02  -1.0059870953379965e-01  -1.0351484780981776e-01  -1.0639039838160558e-01  -1.0922646750999250e-01  -1.1202436972805363e-01  -1.1478490831603318e-01  -1.1750888101985302e-01  -1.2019854566185197e-01  -1.2285437963674464e-01  -1.2547626465727543e-01  -1.2806677175368089e-01  -1.3062765336172563e-01  -1.3315837605500991e-01  -1.3565991052478801e-01  -1.3813506381095669e-01  -1.4058446330571114e-01  -1.4300776146963151e-01  -1.4540731467564380e-01  -1.4778442974053138e-01  -1.5013956724225874e-01  -1.5247465580480413e-01  -1.5478995022838851e-01  -1.5708706647969850e-01  -1.5936746679009173e-01  -1.6163156282473540e-01  -1.6388129073897220e-01  -1.6611714191570104e-01  -1.6834121473805433e-01  -1.7055358091538486e-01  -1.7275602006956134e-01  -1.7495100838703465e-01  -1.7713855541622009e-01  -1.7931995061506154e-01  -1.8149475777717924e-01  -1.8366870480847741e-01  -1.8584114883719435e-01  -1.8801346980217654e-01  -1.9018630164306990e-01  -1.9236395845488652e-01  -1.9454614104336401e-01  -1.9673507568891505e-01  -1.9893604037481744e-01  -2.0114880807857516e-01  -2.0337318859290635e-01  -2.0562362770715312e-01  -2.0788626052506523e-01  -2.1018234372412600e-01  -2.1250862939042281e-01  -2.1487347413457630e-01  -2.1728049489585222e-01  -2.1973932974158741e-01  -2.2225377246235126e-01  -2.2487353256266701e-01  -2.2741034994499007e-01  -2.3511741113411619e-01  -2.3932077903734733e-01  -2.4414226608108025e-01  -2.3840489697867698e-01  -2.6254469593514485e-01  -2.4420773021503434e-01  -2.3752503424767349e-01  -2.3324041530738854e-01  -2.3034071138229689e-01  -2.2822549663538991e-01  -2.2665493218969629e-01  -2.2554541183406213e-01  -2.2493953520833487e-01  -2.2490519344675461e-01  -2.2547956864273286e-01  -2.2630233409787781e-01  -2.2688168360824973e-01  -2.2689291577258652e-01  -2.2651090769632953e-01  -2.2570141878957994e-01  -2.2450743654916527e-01  -2.2278381660172744e-01  -2.2051347019002746e-01  -2.1762979120667264e-01  -2.1412286057294297e-01  -2.0999599501403285e-01  -2.0527859121838854e-01  -2.0002615143048125e-01  -1.9432461189950243e-01  -1.8827331381289505e-01  -1.8197128037962956e-01  -1.7550551556356134e-01  -1.6897322755988448e-01  -1.6242068053309988e-01  -1.5587656252808860e-01  -1.4932146029534965e-01  -1.4271605310313551e-01  -1.3599612241677478e-01  -1.2907167940464073e-01  -1.2187530843442447e-01  -1.1434452137169294e-01  -1.0644148568648219e-01  -9.8162707437876043e-02  -8.9593827164086690e-02  -8.0836764176903969e-02  -7.2038431254127261e-02  -6.3374844820809018e-02  -5.5055463210915832e-02  -4.7236070734051137e-02  -4.0085693535043522e-02  -3.3716445958046341e-02  -2.8217353991870142e-02  -2.3590841185383172e-02  -1.9812830318409708e-02  -1.6799598453110732e-02  -1.4449993299393820e-02  -1.2654358249311338e-02  -1.1248242403185114e-02  -1.0113297786591268e-02  -9.1246220577514310e-03  -8.1709154365790966e-03  -7.1864416348997795e-03  -6.1217594681907735e-03  -4.9645470954778007e-03  -3.7200074973760518e-03  -2.4214511236795061e-03  -1.1081533392052934e-03  1.6532582495096577e-04  1.3661771011617501e-03  2.4528586222966392e-03  3.4007672310898589e-03  4.1996174188754414e-03  4.8523274157757142e-03  5.3693221200973714e-03  5.7737213810818977e-03  6.0885822606830797e-03  6.3375912825866590e-03  6.5399710902645609e-03  6.7126109060484307e-03  6.8656982518680671e-03  7.0046954921480185e-03  7.1299211704941813e-03  7.2438178986142772e-03  7.3319262768109534e-03  7.3998124294749066e-03  7.4352624443460259e-03  7.4394036764994847e-03  7.4033999157482027e-03  7.3258270626661562e-03  7.2112353698929816e-03  7.0480996933528165e-03  6.8381238787234072e-03  6.5887258297717410e-03  6.2883737152094766e-03  5.9405309513888352e-03  5.5532446936268944e-03  5.1147412547210879e-03  4.6282753532153270e-03  4.1083944984582673e-03  3.5318741540422290e-03  2.9163884479976717e-03  2.2616591771644585e-03  1.5475450182243209e-03  8.1936343520550427e-04  0.0000000000000000e+00  0.0000000000000000e+00  0.0000000000000000e+00  0.0000000000000000e+00  0.0000000000000000e+00  0.0000000000000000e+00  0.0000000000000000e+00  0.0000000000000000e+00  0.0000000000000000e+00  9.4450642153970539e-04  1.7926379905774583e-03  2.5954070825457923e-03  3.3538720276405209e-03  4.0685911469173228e-03  4.7360966880575228e-03  5.3557035224859771e-03  5.9264088330076752e-03  6.4431417612686335e-03  6.9089398712616117e-03  7.3147501574230079e-03  7.6614362467926078e-03  7.9437299274329465e-03  8.1575049104777031e-03  8.2987358565430706e-03  8.3615160003626676e-03  8.3399199332055991e-03  8.2264670527158277e-03  8.0133111447438198e-03  7.6898483839209966e-03  7.2440155933827946e-03  6.6656147439432692e-03  5.9437764429578254e-03  5.0702219014125928e-03  4.0425232462821285e-03  2.8610283570074039e-03  1.5393352056968894e-03  9.6866504935752529e-05  -1.4456388833055133e-03  -3.0585562546964914e-03  -4.7228154445760531e-03  -6.4289617859091177e-03  -8.1872525888236937e-03  -1.0032609012705262e-02  -1.2025545104505904e-02  -1.4248103063522779e-02  -1.6796489806971533e-02  -1.9766136859556391e-02  -2.3242482349695892e-02  -2.7273658420244033e-02  -3.1878630632652727e-02  -3.7002837067486694e-02  -4.2590299350238101e-02  -4.8438560136960081e-02  -5.4457697490981838e-02  -6.0393888603814012e-02  -6.6199955240997699e-02  -7.1744186423279011e-02  -7.6993137881510271e-02  -8.1991806144902341e-02  -8.6834759176596471e-02  -9.1647560043399148e-02  -9.6563833254768222e-02  -1.0169732792178192e-01  -1.0712649484735579e-01  -1.1289154647339546e-01  -1.1891240300174787e-01  -1.2520019414958689e-01  -1.3160959373346673e-01  -1.3802104375304902e-01  -1.4434355348455347e-01  -1.5042988769851845e-01  -1.5623366274860589e-01  -1.6166242689086099e-01  -1.6664837531526094e-01  -1.7118080769344182e-01  -1.7522905427581606e-01  -1.7877167767955754e-01  -1.8177346061964320e-01  -1.8418873198181618e-01  -1.8598158508541754e-01  -1.8702637200923400e-01  -1.8742143786947013e-01  -1.8710954681914690e-01  -1.8613647270242650e-01  -1.8411269216070977e-01  -1.8151502604361711e-01  -1.7813589456719794e-01  -1.7415928121011373e-01  -1.6962744408207941e-01  -1.6468209086738575e-01  -1.5933506154087843e-01  -1.5373858736228174e-01  -1.4791085042764046e-01  -1.4188318054180679e-01  -1.3573360231436146e-01  -1.2948203561546651e-01  -1.2315276467480536e-01  -1.1676106140156048e-01  -1.1033310900993444e-01  -1.0387857762289374e-01  -9.7408098699324638e-02  -9.0927647503367112e-02  -8.4446277854883997e-02  -7.7966181141932961e-02  -7.1493831188490245e-02  -6.5031458435243952e-02  -5.8580168825554654e-02  -5.2142827176528780e-02  -4.5721251806035423e-02  -3.9316044450003737e-02  -3.2927789955094267e-02  -2.6558028500621694e-02  -2.0206960071785452e-02  -1.3874895805198876e-02  -7.5621908850875205e-03  -1.2691202995304249e-03  5.0039655330443387e-03  1.1257185149309335e-02  1.7490323491204510e-02  2.3703309441306938e-02  2.9896135012474553e-02  3.6068773617659054e-02  4.2221252166506754e-02  4.8353583221201639e-02  5.4465754582037312e-02  6.0557840965871128e-02  6.6629864345651782e-02  7.2681867322088853e-02  7.8713899766546191e-02  8.4726009292505303e-02  9.0718219269236414e-02  9.0717967987811537e-02  9.0717349139590148e-02  9.0716376257855669e-02  9.0715199473693858e-02  9.0714021016173901e-02  9.0713051517847129e-02  9.0712428980176688e-02  9.0712180144386478e-02  -2.1894365495759754e-01  -2.4897084326756355e-01  -2.2947383386863826e-01  -2.1374964052709414e-01  -2.0241989981094294e-01  -1.9134583018113846e-01  -1.8044904955292393e-01  -1.6963916842299645e-01  -1.5820292925618729e-01  -1.4898813710579809e-01  -1.3917625125972766e-01  -1.2893739381598426e-01  -1.1843768778890094e-01  -1.0748630683895355e-01  -9.6271334197908648e-02  -2.4526471825880047e-01  -1.8442491728022153e-01  -2.0263919454152407e-01  -1.7923484627294747e-01  -1.5271113953285806e-01  -1.2527542756148943e-01  -9.4517271326268873e-02  -8.3784899483152694e-02  -2.2983755557204286e-01  -5.9849183226471932e-02  -7.0711820786335033e-02  -3.1413623839385924e-02  -5.6877627141111865e-02  -1.5922570892635705e-02  -1.6830604533739427e-01  -9.8596518290000931e-03  -4.1559048328410869e-02  -1.3435028981194999e-01  -5.8042181947649861e-03  -2.2445770667532797e-01  -1.8691211228976928e-01  -2.6518608834789448e-02  -6.6882628508660512e-04  -9.8498420963342784e-02  3.6974790703734068e-03  -9.2501828422704487e-03  -7.9562083177469975e-02  5.8779486776555914e-03  -4.6415344651689117e-02  8.5092538735502092e-03  -1.8262516303528173e-01  6.7438338893907272e-03  -2.9670290009430191e-02  -1.7202258226740075e-01  7.2419367436435036e-03  -1.5654265583845772e-01  -1.5517980741564940e-02  2.8481125573396177e-02  4.3326269178370624e-02  -9.2370504935026642e-03  -1.5273848756314948e-01  -1.1518368309510717e-01  7.3875005196608404e-03  -6.2906338538503914e-02  7.1051635545237059e-03  -1.3920628681730030e-01  -2.2077113665277917e-01  -2.3638180039569755e-03  -1.1358813563415990e-01  2.0946723502392852e-03  6.4200079039335011e-03  5.9537126779471310e-02  -9.4454974364910668e-02  6.2063519429079936e-03  5.3205900107636209e-03  -7.4329960840063825e-02  3.8053651787681528e-03  7.7757643295304065e-03  -4.9162034896029334e-02  8.2516466897536479e-03  -1.7163563054449247e-02  7.7349766760191896e-03  2.4642828335937677e-03  2.0596935160558199e-02  6.6198005058705914e-03  4.9681875341913342e-03  5.1982360588078716e-02  6.4527089302340249e-04  8.5729237973073913e-02  -2.2585643979500761e-01  2.9147920809080288e-03  6.9655885573856338e-02  -2.3558609299482328e-01  -2.2611637441930871e-01  -1.7971778141264197e-01  -1.2624792561104869e-01  -6.1804043359314935e-02  -2.1195551499989049e-01  -3.6473010287676931e-02  7.0386302071676773e-02  1.8342396451569900e-02  -8.8940085549285064e-02  1.9504261591769722e-04  3.3233760046702858e-02  -2.1516703832043450e-02  -5.6869206335214122e-03  2.5572394426188411e-03  -1.7662279316900974e-02  4.4494802529617770e-03  8.1987143345248325e-03  7.3785168288028578e-03  -3.4274012958388438e-02  7.0260831162785335e-03  6.3903393888077517e-03  5.0381792156725070e-03  1.7680908120721709e-03  -3.3113176331796795e-03  -4.9554569029973738e-02  -7.9413153618842040e-03  -1.2205895411763147e-02  -2.2220301557590097e-02  -4.4202574709369002e-02  -6.3838294745610827e-02  -7.7080178401673777e-02  -1.1079962624399317e-01  -1.3938340556766080e-01  -1.6597454252429036e-01  6.3148691749905308e-04  -1.9131956409098627e-01  -7.7322967486829916e-02  -9.0056512480092624e-02  8.5309266515263923e-02  -1.0237927132348978e-01  -1.1355025669227971e-01  -1.2455178667849098e-01  -1.3455824269793315e-01  -1.4418835822081241e-01  -1.5366070931052062e-01  -1.6509987325704797e-01  -1.7611431063855340e-01  -1.8699579604109756e-01  -1.9812527859134127e-01  -2.0919325395165025e-01  -2.3650662369444123e-01  7.0035759316032454e-04  8.5838869840784371e-02  -2.2613702129779598e-01  8.6447012671543949e-02  6.5837427423177312e-04  1.3310791963530469e-03  8.1644068867101183e-02  -2.2627743051055291e-01  -2.2598997594701656e-01  -2.2575623315373797e-01  -2.2610242092110125e-01  -2.2585494652337998e-01  -2.2657098810216658e-01  -2.2626788966046105e-01  -2.2714978092753380e-01  -2.2678309457506535e-01  -2.2762603763804290e-01  -2.2714680430663914e-01  -2.2769490903820036e-01  -2.2716287556278211e-01  -2.2726341191841259e-01  -2.2674860278485906e-01  -2.2645394075330866e-01  -2.2589753264251358e-01  -2.2528275548236243e-01  -2.2446880210195541e-01  -2.2569661869864582e-01  -2.2406596774466711e-01  -2.2460398092098097e-01  -2.2213713617213757e-01  -2.2281987683685328e-01  -2.2488642759459898e-01  -2.2307363245723749e-01  -2.1937384941294885e-01  -2.2019982343311903e-01  -2.2323718812894608e-01  -2.2096837527281099e-01  -2.1987227261794512e-01  -2.1718178600726473e-01  -2.1801843067542587e-01  -2.1364670380734743e-01  -2.1395158038429046e-01  -2.0901797168252004e-01  -2.0887932918414834e-01  -2.0352716447119143e-01  -2.0274070433126526e-01  -1.9707557419750452e-01  -1.9581371442678061e-01  -1.8994986696856933e-01  -1.8829919907628437e-01  -1.8249262336197966e-01  -1.8044345924726427e-01  -1.7493519647974728e-01  -1.7263164802694653e-01  -1.6747386246151405e-01  -1.6500934582341442e-01  -1.6024606160840948e-01  -1.5772220604232776e-01  -1.5329556891243526e-01  -1.5082772760482707e-01  -1.4668523197714203e-01  -1.4420358917964105e-01  -1.4031388159764979e-01  -1.3772759490335393e-01  -1.3377666032536831e-01  -1.3116757642617691e-01  -1.2697453915873075e-01  -1.2430739599860176e-01  -1.2009916384797051e-01  -1.1703059137558769e-01  -1.1298109613404100e-01  -2.1492994367103682e-01  -1.0931666565126068e-01  -1.0559892468020962e-01  -1.0119746875590603e-01  -9.7730595622780372e-02  -2.2810208722035735e-01  -9.2701880897572156e-02  -8.9937172955041514e-02  -8.4120720752390729e-02  -8.2687963627372796e-02  -7.5774062574262183e-02  -7.5735245997551104e-02  -6.7747472330282055e-02  -6.9082536665800692e-02  -6.0273363572028907e-02  -6.2960850454570852e-02  -5.3512460345127147e-02  -2.1580015902469496e-01  -2.1676332359259759e-01  -2.2098081537999759e-01  -2.1745986299873721e-01  -5.8010918114270900e-02  -4.7631981166018460e-02  -5.2178224978231103e-02  -4.2465943858780664e-02  -4.7571295331629425e-02  -3.8005748248332930e-02  -2.0237752318896296e-01  -2.2170478338977401e-01  -2.1790860688243971e-01  -2.1315499068065666e-01  -2.1337878828638535e-01  -2.1795902431890024e-01  -2.1306070447620001e-01  -2.1731532570472598e-01  -2.1209885722637675e-01  -2.1601119742125033e-01  -2.1051850615022644e-01  -2.1320724883639938e-01  -2.0819048711332910e-01  -2.1050660429471119e-01  -2.0542728967902849e-01  -2.0258255594133504e-01  -2.0031283469659963e-01  -2.0280494312590691e-01  -1.9746851597475645e-01  -1.9884788495399353e-01  -1.9422503136279909e-01  -1.9511593047444220e-01  -1.9087521413035669e-01  -1.9109158426972872e-01  -1.8744241920636151e-01  -1.8762042466455070e-01  -1.8385434153123331e-01  -1.8333033455941772e-01  -1.8000526574565295e-01  -1.8033136071593958e-01  -1.7645541817684421e-01  -1.7612813650634224e-01  -1.7261602958461000e-01  -1.7276812465606425e-01  -1.6920069482901140e-01  -1.6916169859971691e-01  -1.6571376586503594e-01  -1.6554333320281517e-01  -1.6218491304147531e-01  -1.9517530447994677e-01  -1.6190784518332033e-01  -1.5857780593326512e-01  -1.5881137907108953e-01  -1.5527606688319359e-01  -1.5491416421856768e-01  -1.5166636249014043e-01  -2.0834728498882865e-01  -4.3682832703207046e-02  -3.4284085217565187e-02  -1.5133684486811688e-01  -1.4811172320208574e-01  -1.5529438427603964e-01  -1.6905218066865432e-01  -3.9812393321977002e-02  -3.0994438101949958e-02  -3.5790331094463224e-02  -2.8049021657706508e-02  -3.2325789149977031e-02  -2.5374871619972639e-02  -1.4786479915059286e-01  -1.4455647741516733e-01  -1.4519795920069051e-01  -1.4126852473148346e-01  -1.4070898048146577e-01  -1.3739911937174917e-01  -1.3789527533088353e-01  -1.3411786761300620e-01  -1.3359594677051434e-01  -1.3035709516121091e-01  -2.8836517523568212e-02  -2.2897615630587471e-02  -2.5755798929038953e-02  -2.0530539579304022e-02  -1.7664682212148505e-01  -1.2985016953461750e-01  -1.2651979064664365e-01  -2.2738601505252878e-02  -1.8285758623538002e-02  -1.2702715912311310e-01  -1.2318789220447719e-01  -1.2267580600140579e-01  -1.1935857953969571e-01  -1.9881803223654383e-02  -1.6058689040970162e-02  -1.7304138508011099e-02  -1.3919914709565639e-02  -1.4868139241145614e-01  -2.2177256102211407e-01  -1.9982654473353192e-01  -2.1519509259587799e-01  -1.4935081357225700e-02  -1.1934496393370348e-02  -1.2807606688465784e-02  -1.0032866202732865e-02  -1.0869176977486435e-02  -8.2408569990246039e-03  -1.1892522870769202e-01  -1.1550949198790005e-01  -1.1595410778534707e-01  -1.1206249675022276e-01  -1.1151290338515642e-01  -1.0802672788816467e-01  -1.0855619578553810e-01  -1.0454675126890682e-01  -1.0405197820956204e-01  -1.0057391319129849e-01  -1.6913262318736519e-01  -1.9091281859084924e-01  -9.1616728672297264e-03  -6.5841534095008132e-03  -7.5529226820045510e-03  -5.0516617826640705e-03  -1.2946674671468589e-01  -2.2641918888223012e-01  -1.0022147729452573e-01  -9.6650812664083929e-02  -9.6946155917684906e-02  -9.2958527235453184e-02  -9.2624280833251693e-02  -8.8923515246098428e-02  -8.9149817252847971e-02  -8.4982977732696113e-02  -8.4886382833375296e-02  -8.1030380198914523e-02  -2.2426187921427021e-01  -6.1145348178039093e-03  -3.6432191369364961e-03  -4.6942441572339309e-03  -2.3028560474769207e-03  -1.0178517169625634e-01  -2.1293025205619595e-01  -2.2742265621689917e-01  -1.5444902612577383e-01  -2.1472023161350878e-01  -2.1025327961171228e-01  -2.0896026224989900e-01  -3.4421773235155956e-03  -1.0976549952390945e-03  -2.1550519907522856e-03  1.4826720575113402e-05  -9.2066000138237394e-04  1.0580834828205928e-03  -2.0393564370074330e-01  -2.0258220115071582e-01  -8.1200196751737549e-02  -7.7085574817584768e-02  -7.6987443234305425e-02  -7.2989023221290014e-02  -7.3094340127443494e-02  -6.8936579554972205e-02  -6.8763240765025935e-02  -6.4767742202021125e-02  2.9015337167773229e-04  2.0214852211653503e-03  -1.8522864048854132e-01  -1.3311766873178155e-01  -1.2941871116702874e-01  1.4787966477725816e-03  2.9354053042449837e-03  2.4396907939099760e-03  3.7269796308399246e-03  -1.3504738318221665e-01  -6.4574238548599505e-02  -6.0562756705991941e-02  -6.0368623006647457e-02  -5.6343890711220992e-02  -8.2746269255282334e-02  -1.6203712990966965e-01  -5.6438052166986052e-02  -5.2215775640214096e-02  -5.2127863861008268e-02  -4.7916044647608180e-02  -4.7852508754245258e-02  -4.3617851051731590e-02  -4.3737393181383269e-02  -3.9258282638777550e-02  -5.7201131165801458e-02  -3.9510090331989975e-02  -3.4936292046934617e-02  -5.9213011917158290e-02  3.5018396125714897e-03  4.4971283510519952e-03  4.3639960279682937e-03  5.1621634402039523e-03  -1.9950561163926316e-02  -1.0485151768822958e-01  -2.4020447331626039e-02  -8.5778099048770803e-02  1.1487314068488964e-03  -2.9869868114695837e-02  -1.0366749737583109e-01  -4.4942674674548856e-02  -3.4828316326427237e-02  -3.0489329183580351e-02  -3.0514183168270155e-02  -2.6022811456203457e-02  -1.0776642039466164e-03  -3.8680315920397626e-02  -1.2626523746666101e-02  -1.4835835759462382e-01  -3.9202617887564642e-03  2.8642880227462576e-03  -1.2194036092441790e-01  5.1660626659401172e-03  5.7530489465338706e-03  5.8285580980346387e-03  6.2641447910480102e-03  6.4043696561776574e-03  6.6923143986520016e-03  -2.0092188417175560e-01  -7.1914252020322273e-03  -1.6050945831133531e-02  4.2085192716182478e-03  -1.0492488601492422e-01  -1.2358911306311665e-01  -1.8765302621096605e-01  -1.9064075443951745e-01  -1.8732157011915485e-01  5.3195449232090967