<?xml version="1.0"?>
<VTKFile type="UnstructuredGrid"  version="0.1"  >
<UnstructuredGrid>
<Piece  NumberOfPoints="2705" NumberOfCells="5060">
<Points>
<DataArray  type="Float64"  NumberOfComponents="3"  format="ascii">0 0.1 0  0.98 0.1 0  1 0.1 0  1 0 0  3 0 0  3 0.3 0  0 0.3 0  0.01975375321854102 0.1 0  0.03918897458218897 0.1 0  0.05831079002627837 0.1 0  0.07712425666319796 0.1 0  0.0956343475259058 0.1 0  0.1138459546796227 0.1 0  0.1317638870668193 0.1 0  0.1493928840275937 0.1 0  0.1667376092280033 0.1 0  0.1838026357802664 0.1 0  0.2005924801287244 0.1 0  0.2171115811543574 0.1 0  0.2333643037107681 0.1 0  0.2493549444060462 0.1 0  0.2650877293306821 0.1 0  0.2805668058011438 0.1 0  0.2957962848620976 0.1 0  0.3107801766802674 0.1 0  0.3255224447361181 0.1 0  0.3400269848175519 0.1 0  0.3542976327080778 0.1 0  0.3683381609158136 0.1 0  0.3821522744564845 0.1 0  0.3957436316838916 0.1 0  0.4091158196437086 0.1 0  0.4222723742184605 0.1 0  0.4352167733293057 0.1 0  0.4479524348643424 0.1 0  0.4604827295467524 0.1 0  0.4728109659990664 0.1 0  0.4849404035409129 0.1 0  0.4968742471455402 0.1 0  0.508615651843175 0.1 0  0.520167721130924 0.1 0  0.5315335063628542 0.1 0  0.5427160117228604 0.1 0  0.5537181940261912 0.1 0  0.564542961924507 0.1 0  0.575193173270606 0.1 0  0.5856716438765114 0.1 0  0.5959811458006617 0.1 0  0.6061243988680743 0.1 0  0.6161040893285659 0.1 0  0.6259228503970299 0.1 0  0.6355832809287655 0.1 0  0.6450879281079505 0.1 0  0.6544393102991295 0.1 0  0.663639896558931 0.1 0  0.6726921201956305 0.1 0  0.6815983691630338 0.1 0  0.6903610031396646 0.1 0  0.6989823343332418 0.1 0  0.7074646404270378 0.1 0  0.7158101645005117 0.1 0  0.7240211149852543 0.1 0  0.7320996585612525 0.1 0  0.7400479319727645 0.1 0  0.7478680336617921 0.1 0  0.755562036504958 0.1 0  0.7631319665092091 0.1 0  0.7705798279317605 0.1 0  0.777907588066146 0.1 0  0.7851171851013118 0.1 0  0.7922105226004981 0.1 0  0.7991894774550319 0.1 0  0.8060558928136696 0.1 0  0.812811583201334 0.1 0  0.8194583352091183 0.1 0  0.8259979035038147 0.1 0  0.8324320194413813 0.1 0  0.8387623808293405 0.1 0  0.8449906627004957 0.1 0  0.8511185094880469 0.1 0  0.8571475426008311 0.1 0  0.8630793533568246 0.1 0  0.8689155114558531 0.1 0  0.8746575581239063 0.1 0  0.8803070109173519 0.1 0  0.885865363938836 0.1 0  0.8913340851680313 0.1 0  0.8967146206523592 0.1 0  0.9020083930695622 0.1 0  0.9072167995950768 0.1 0  0.9123412183131177 0.1 0  0.9173830029719022 0.1 0  0.9223434865647732 0.1 0  0.9272239785872722 0.1 0  0.9320257720706087 0.1 0  0.9367501330378739 0.1 0  0.9413983102716995 0.1 0  0.9459715351562933 0.1 0  0.9504710127113115 0.1 0  0.9548979346500661 0.1 0  0.9592534708344373 0.1 0  0.9635387708980176 0.1 0  0.9677549682252325 0.1 0  0.971903177251235 0.1 0  0.9759844952956497 0.1 0  0.9840000000000086 0.1 0  0.987999999999974 0.1 0  0.9919999999999393 0.1 0  0.9959999999999913 0.1 0  1 0.09591793123533533 0  1 0.09133596463859224 0  1 0.08619288104391448 0  1 0.08041996484521211 0  1 0.07394008421771697 0  1 0.06666666567302955 0  1 0.05850252932209174 0  1 0.04933859630113544 0  1 0.03905242821848202 0  1 0.02750659386753798 0  1 0.01454683679239736 0  1.016020550394751 0 0  1.032153385236268 0 0  1.048399294954455 0 0  1.064759072477566 0 0  1.081233515533994 0 0  1.097823427949778 0 0  1.114529617202262 0 0  1.131352900433151 0 0  1.148294101583001 0 0  1.165354040242892 0 0  1.182533552515274 0 0  1.199833475866261 0 0  1.217254652230041 0 0  1.234797936155386 0 0  1.252464178425587 0 0  1.270254255168802 0 0  1.288169006479837 0 0  1.306209325437119 0 0  1.324376095845444 0 0  1.342670189274758 0 0  1.36109251192469 0 0  1.379643952662183 0 0  1.398325417002887 0 0  1.41713782425084 0 0  1.436082080652155 0 0  1.455159124826087 0 0  1.474369882349725 0 0  1.493715277083147 0 0  1.513196265767424 0 0  1.532813806019548 0 0  1.552568842185085 0 0  1.572462339217603 0 0  1.592495269056204 0 0  1.612668607023916 0 0  1.632983343549927 0 0  1.653440462592259 0 0  1.674040969525434 0 0  1.694785855791528 0 0  1.715676155173469 0 0  1.73671286736412 0 0  1.757897026351256 0 0  1.779229664888713 0 0  1.800711824755784 0 0  1.82234455324737 0 0  1.84412890624001 0 0  1.866065945376083 0 0  1.888156733760833 0 0  1.910402369606354 0 0  1.93280391688052 0 0  1.955362477143487 0 0  1.978079144436244 0 0  2.000955036197599 0 0  2.023991269446432 0 0  2.047188964767926 0 0  2.0705492490968 0 0  2.094073263768322 0 0  2.117762156205791 0 0  2.141617082624289 0 0  2.16563921705895 0 0  2.189829717267639 0 0  2.214189770072521 0 0  2.238720556051706 0 0  2.263423288009975 0 0  2.288299155588418 0 0  2.313349376228164 0 0  2.338575176964319 0 0  2.363977783618623 0 0  2.389558433680938 0 0  2.415318384393194 0 0  2.441258882154933 0 0  2.467381196024248 0 0  2.493686599690135 0 0  2.520176385407638 0 0  2.546851827526312 0 0  2.573714242586076 0 0  2.600764942577301 0 0  2.628005231328753 0 0  2.655436452882501 0 0  2.683059932630583 0 0  2.710877029970518 0 0  2.73888909859219 0 0  2.767097496229523 0 0  2.79550361535459 0 0  2.824108829114479 0 0  2.852914536031111 0 0  2.881922140827726 0 0  2.911133056443728 0 0  2.940548720418847 0 0  2.970170550362583 0 0  3 0.02999999999994495 0  3 0.05999999999987042 0  3 0.089999999999783 0  3 0.119999999999701 0  3 0.149999999999619 0  3 0.179999999999692 0  3 0.2099999999997737 0  3 0.2399999999998511 0  3 0.2699999999999185 0  2.970138294777171 0.3 0  2.940375666438236 0.3 0  2.910711782853056 0.3 0  2.881146331305122 0.3 0  2.851678975030285 0.3 0  2.822309388626621 0.3 0  2.793037250095074 0.3 0  2.76386223529133 0.3 0  2.734784017903872 0.3 0  2.705802289276642 0.3 0  2.676916713794697 0.3 0  2.648126987654635 0.3 0  2.619432780406184 0.3 0  2.590833779385199 0.3 0  2.562329669847737 0.3 0  2.533920134950189 0.3 0  2.505604855727852 0.3 0  2.477383539822502 0.3 0  2.449255847639465 0.3 0  2.421221492569094 0.3 0  2.393280152486815 0.3 0  2.36543151914496 0.3 0  2.337675285481809 0.3 0  2.310011142385583 0.3 0  2.282438797441587 0.3 0  2.254957931061538 0.3 0  2.227568248063605 0.3 0  2.200269436651085 0.3 0  2.173061204949961 0.3 0  2.145943251515011 0.3 0  2.118915272469994 0.3 0  2.091976978084957 0.3 0  2.065128060700849 0.3 0  2.038368218849433 0.3 0  2.01169717777258 0.3 0  1.985114624111908 0.3 0  1.958620267850966 0.3 0  1.93221382054972 0.3 0  1.905894991850698 0.3 0  1.879663489459713 0.3 0  1.853519019126419 0.3 0  1.827461291053897 0.3 0  1.801490031354372 0.3 0  1.775604937580312 0.3 0  1.74980572560258 0.3 0  1.724092118631866 0.3 0  1.698463829173586 0.3 0  1.672920575782554 0.3 0  1.647462076974085 0.3 0  1.622088043536933 0.3 0  1.5967981978949 0.3 0  1.571592267767068 0.3 0  1.546469970305736 0.3 0  1.521431023814044 0.3 0  1.496475156230927 0.3 0  1.471602093687753 0.3 0  1.446811560490646 0.3 0  1.422103279101731 0.3 0  1.397476971708191 0.3 0  1.37293238939876 0.3 0  1.348469231419202 0.3 0  1.324087248732772 0.3 0  1.299786165921677 0.3 0  1.275565710847046 0.3 0  1.251425617644257 0.3 0  1.227365618676339 0.3 0  1.203385446174014 0.3 0  1.179484853067473 0.3 0  1.155663548773374 0.3 0  1.131921292279077 0.3 0  1.108257802159295 0.3 0  1.084672829009693 0.3 0  1.061166115303374 0.3 0  1.037737392995421 0.3 0  1.01438640299116 0.3 0  0.991112899770314 0.3 0  0.9679166155523955 0.3 0  0.944797284182564 0.3 0  0.921754678526042 0.3 0  0.8987885143602501 0.3 0  0.8758985548820624 0.3 0  0.8530845484099929 0.3 0  0.8303462351786988 0.3 0  0.8076833651172373 0.3 0  0.7850956864865304 0.3 0  0.7625829601354557 0.3 0  0.7401449314598274 0.3 0  0.717781337993959 0.3 0  0.6954919649675473 0.3 0  0.6732765357561226 0.3 0  0.6511348120768439 0.3 0  0.6290665642016573 0.3 0  0.6070715355430467 0.3 0  0.5851494825775325 0.3 0  0.5633001690203812 0.3 0  0.5415233562273221 0.3 0  0.5198187909431873 0.3 0  0.4981862401387795 0.3 0  0.4766254686134248 0.3 0  0.4551362360485234 0.3 0  0.4337182975262159 0.3 0  0.4123714223228037 0.3 0  0.3910953802377493 0.3 0  0.3698899313205595 0.3 0  0.3487548463710963 0.3 0  0.3276898864081783 0.3 0  0.3066948129116018 0.3 0  0.2857694003037476 0.3 0  0.2649134227095047 0.3 0  0.2441266417321288 0.3 0  0.2234088223399122 0.3 0  0.2027597568977288 0.3 0  0.1821792020676698 0.3 0  0.1616669305402443 0.3 0  0.1412227158799362 0.3 0  0.12084633013886 0.3 0  0.1005375673448281 0.3 0  0.08029618164595353 0.3 0  0.06012194778526769 0.3 0  0.04001466495039718 0.3 0  0.01997408913631205 0.3 0  0 0.2800000000000553 0  0 0.2600000000001105 0  0 0.2400000000001658 0  0 0.2200000000002211 0  0 0.2000000000002764 0  0 0.1800000000002244 0  0 0.1600000000001691 0  0 0.140000000000115 0  0 0.1200000000000564 0  1.139147342155451 0.01402312796110374 0  1.003846432965526 0.09424410338552042 0  0.9779237415493457 0.10303715329271 0  0.9525322729471357 0.1037883113413676 0  0.9297268847131464 0.1045730213771781 0  0.9046089814431624 0.104336569409788 0  0.877471620806838 0.1038902524152954 0  0.8484650538876116 0.1052432520737866 0  0.8159640469246969 0.1059371394421246 0  0.7886638538509052 0.1060934813339016 0  0.7587098578963086 0.1078079872398564 0  0.7267218807318911 0.1066246423921731 0  0.6933049262001144 0.1065261986562333 0  0.6579684410383846 0.1078243939978959 0  0.6214208701021879 0.1087048760815267 0  0.9941749516486179 0.1037853116611355 0  1.120978489398116 0.279674477539142 0  1.208544064048151 0.01503467720016028 0  1.277910333952869 0.01779594515292307 0  1.351715717346224 0.01850593010538557 0  1.427966398080389 0.0186283585208804 0  1.50319238505989 0.01550695005010656 0  0.5804324085735586 0.1090014561521007 0  1.005955353234479 0.07030337494537306 0  1.582478804136902 0.01728864997636526 0  0.5372897138364388 0.1092087118973372 0  1.663740716058847 0.0177784735569346 0  0.4914692535170423 0.110729061919444 0  1.747243287282295 0.01944243088977818 0  1.238974330067154 0.2790657993464123 0  1.834291106016765 0.02121111407792533 0  0.44060840912
[...]
<PointData  Scalars="pressure"> 
<DataArray  type="Float64"  Name="pressure"  format="ascii">2.0641927414411820e-01  -1.2392580136527619e-01  -1.8575167798596373e-01  -1.2359582471599181e-01  0.0000000000000000e+00  0.0000000000000000e+00  2.0642509538981280e-01  2.0049314914570629e-01  1.9466252632066963e-01  1.8892584910956958e-01  1.8328158324302127e-01  1.7772823077692718e-01  1.7226431555373103e-01  1.6688835932393251e-01  1.6159897728949874e-01  1.5639469370997819e-01  1.5127416997328305e-01  1.4623603085753989e-01  1.4127886287945263e-01  1.3640138564815135e-01  1.3160228537388408e-01  1.2688021423705881e-01  1.2223394484752438e-01  1.1766221100714661e-01  1.1316366475578614e-01  1.0873719280176097e-01  1.0438151599975985e-01  1.0009537417883843e-01  9.5877698760735111e-02  9.1727186263766566e-02  8.7642748733866502e-02  8.3623219888698017e-02  7.9667410048211498e-02  7.5774195499340558e-02  7.1942468167133372e-02  6.8171114767447846e-02  6.4459032691337514e-02  6.0805077458937311e-02  5.7208240663993319e-02  5.3667383710520045e-02  5.0181462492385913e-02  4.6749409739352980e-02  4.3370124310588010e-02  4.0042624446511660e-02  3.6765794777157607e-02  3.3538703573180020e-02  3.0360207954148153e-02  2.7229386471897245e-02  2.4145113774162934e-02  2.1106501142620613e-02  1.8112509014444264e-02  1.5162027588496383e-02  1.2254150309538695e-02  9.3879454560599450e-03  6.5624683670801511e-03  3.7764661328679775e-03  1.0293994210462299e-03  -1.6798565087910024e-03  -4.3527472650592451e-03  -6.9896252124259373e-03  -9.5910240076645704e-03  -1.2158749525210812e-02  -1.4694014165423628e-02  -1.7196311817503158e-02  -1.9667137250051873e-02  -2.2108335970490844e-02  -2.4519692161845234e-02  -2.6902166020324254e-02  -2.9256805530643120e-02  -3.1584596067231338e-02  -3.3886132430000958e-02  -3.6162684050878052e-02  -3.8414364115737294e-02  -4.0642411625748893e-02  -4.2847510154417755e-02  -4.5030474134794961e-02  -4.7191917734734454e-02  -4.9332446541198324e-02  -5.1453390747297219e-02  -5.3554435673252992e-02  -5.5637244864867236e-02  -5.7702181723066695e-02  -5.9749783761292169e-02  -6.1779653874316380e-02  -6.3793606226791144e-02  -6.5792392570798622e-02  -6.7775817441983938e-02  -6.9744362447000025e-02  -7.1698267609375060e-02  -7.3638822418082298e-02  -7.5565084918621128e-02  -7.7478006528615279e-02  -7.9377971531358685e-02  -8.1264458957777452e-02  -8.3136998419359301e-02  -8.4996937424168126e-02  -8.6840336859006412e-02  -8.8671390068347969e-02  -9.0484985579014451e-02  -9.2280106527869415e-02  -9.4056767477662909e-02  -9.5805289004188554e-02  -9.7485192946217131e-02  -9.9712785247081673e-02  -9.8457921947924493e-02  -9.8301698004412311e-02  -8.5165203284683119e-02  -9.0802494630496347e-02  -9.3460760378516666e-02  -1.6790846181959124e-01  -1.4644215569179017e-01  -1.3855896892584488e-01  -1.3347159637947642e-01  -1.2994960618015103e-01  -1.2735531482630374e-01  -1.2541914973927171e-01  -1.2401425712788777e-01  -1.2317213308889266e-01  -1.2293551509513631e-01  -1.2331277277727887e-01  -1.2393732722346695e-01  -1.2425893710931567e-01  -1.2398029949960891e-01  -1.2332283956840644e-01  -1.2238043390579832e-01  -1.2125943744264019e-01  -1.1993138885557636e-01  -1.1839827163994218e-01  -1.1661164269437864e-01  -1.1452123108763466e-01  -1.1206193954189241e-01  -1.0916540854148944e-01  -1.0576802983533518e-01  -1.0183495123631646e-01  -9.7347864628757941e-02  -9.2303936310233467e-02  -8.6751620134521062e-02  -8.0771477743733708e-02  -7.4448452960218986e-02  -6.7895189918061247e-02  -6.1211545183963954e-02  -5.4509972534358658e-02  -4.7882478262898584e-02  -4.1384895726017230e-02  -3.5054356801611716e-02  -2.8910004546661646e-02  -2.2938592376814022e-02  -1.7095270754650321e-02  -1.1349634616346832e-02  -5.6689332544028670e-03  -2.8103453911853334e-05  5.5768866077849392e-03  1.1113245137745148e-02  1.6536496561270788e-02  2.1775740337196696e-02  2.6741791069876165e-02  3.1337848969445956e-02  3.5483639950338389e-02  3.9108959645967549e-02  4.2184787102296270e-02  4.4700952837144189e-02  4.6665065034634329e-02  4.8156942532544975e-02  4.9234254715626175e-02  4.9994264136250167e-02  5.0540244006719151e-02  5.0937720881301177e-02  5.1260694908854085e-02  5.1547180435875209e-02  5.1810496966479172e-02  5.2038700747867948e-02  5.2195384790808041e-02  5.2233245387723240e-02  5.2114210309976795e-02  5.1794079698341981e-02  5.1256456882262769e-02  5.0505542069461916e-02  4.9564516376123878e-02  4.8479864871128812e-02  4.7308897961242040e-02  4.6119582143747583e-02  4.4964394480171345e-02  4.3881251806000693e-02  4.2887997165102956e-02  4.1974962779140770e-02  4.1107625448210734e-02  4.0237860840130223e-02  3.9304508182079631e-02  3.8263228782509207e-02  3.7074090547764241e-02  3.5725408731732057e-02  3.4223112525550450e-02  3.2604947868337106e-02  3.0913351171676252e-02  2.9191034206092939e-02  2.7491284366851210e-02  2.5835346990453173e-02  2.4218040314903669e-02  2.2627689607901697e-02  2.1025652330214781e-02  1.9360113810619240e-02  1.7598662072526382e-02  1.5708937845082593e-02  1.3668664460200909e-02  1.1515087832358458e-02  9.2623217309320289e-03  6.9453623552293920e-03  4.6398331752305335e-03  2.3150124330687124e-03  0.0000000000000000e+00  0.0000000000000000e+00  0.0000000000000000e+00  0.0000000000000000e+00  0.0000000000000000e+00  0.0000000000000000e+00  0.0000000000000000e+00  0.0000000000000000e+00  0.0000000000000000e+00  2.5581468237377749e-03  4.9038974671727536e-03  7.1390982427106528e-03  9.2838990745453889e-03  1.1378428333331896e-02  1.3467403973478983e-02  1.5584938539872252e-02  1.7740814303289599e-02  1.9916428301753348e-02  2.2079745234886608e-02  2.4170731766369597e-02  2.6137686018042661e-02  2.7931463457655605e-02  2.9529151820504161e-02  3.0936994884993855e-02  3.2188574046210110e-02  3.3336187447687390e-02  3.4442220235023066e-02  3.5555791863192229e-02  3.6700710236838435e-02  3.7871883519977639e-02  3.9021490682341078e-02  4.0079234366702195e-02  4.0958187810098405e-02  4.1578124078515584e-02  4.1880483965343392e-02  4.1847610424719996e-02  4.1503419201248309e-02  4.0905054007620574e-02  4.0141439321483188e-02  3.9296953236160399e-02  3.8442541115599596e-02  3.7612226324635296e-02  3.6789490906066563e-02  3.5910871732117322e-02  3.4880117657496698e-02  3.3587120027452122e-02  3.1935713289352283e-02  2.9859512959202441e-02  2.7352063555213919e-02  2.4449554558821255e-02  2.1252008421757791e-02  1.7882316414104062e-02  1.4443804837443253e-02  1.1030802754426939e-02  7.6922559794225121e-03  4.4302059340820535e-03  1.1557663432085516e-03  -2.2189217281038272e-03  -5.7986834758199405e-03  -9.6743181283841136e-03  -1.3894480445640548e-02  -1.8462404042400266e-02  -2.3335296438761650e-02  -2.8434130392702820e-02  -3.3672675562149361e-02  -3.8872405176456494e-02  -4.4008255287517971e-02  -4.8972742127780841e-02  -5.3685331278324713e-02  -5.8143519482041162e-02  -6.2300045096155367e-02  -6.6183220851568428e-02  -6.9771298469578621e-02  -7.3040412423446818e-02  -7.5985299624702532e-02  -7.8559959285338557e-02  -8.0712493795396981e-02  -8.2363836918915342e-02  -8.3426162309432644e-02  -8.3825680698226351e-02  -8.3423894610486354e-02  -8.2319733882693757e-02  -8.0449033568386216e-02  -7.7956522307707624e-02  -7.4565000024509720e-02  -7.0695867299419901e-02  -6.6237217662490716e-02  -6.1374566764642736e-02  -5.6131707402923121e-02  -5.0623629288659364e-02  -4.4855693927683994e-02  -3.8931735589880903e-02  -3.2860667188246248e-02  -2.6656855267468395e-02  -2.0375420466789206e-02  -1.4026509670525116e-02  -7.6270079623048373e-03  -1.1852549556475153e-03  5.2794464444319636e-03  1.1760587504409668e-02  1.8250298639628761e-02  2.4744407879197856e-02  3.1235732491559417e-02  3.7722805683526081e-02  4.4200282649790652e-02  5.0666300347711080e-02  5.7120148399033795e-02  6.3559311632193513e-02  6.9982212949770986e-02  7.6388349113905338e-02  8.2777258929760247e-02  8.9147502143517521e-02  9.5498913129159854e-02  1.0183122334563939e-01  1.0814410634921140e-01  1.1443730932703459e-01  1.2071049207981165e-01  1.2696378611225542e-01  1.3319697974328237e-01  1.3941000953610810e-01  1.4560286924466484e-01  1.5177553614192654e-01  1.5792803769699676e-01  1.6406038796972228e-01  1.7017257551356738e-01  1.7626467538228174e-01  1.8233670932093887e-01  1.8838872015590344e-01  1.9442075760016236e-01  2.0043286932747989e-01  2.0642507996089610e-01  2.0642483874049819e-01  2.0642424523681477e-01  2.0642331276499140e-01  2.0642218518549008e-01  2.0642105600376184e-01  2.0642012677143887e-01  2.0641952972652824e-01  2.0641929084134839e-01  -1.1724846657190298e-01  -1.5224483011856796e-01  -1.0371435169991954e-01  -9.1400714918432935e-02  -8.2321377528893361e-02  -7.2726661007685836e-02  -6.2823474092954690e-02  -5.2684681817081296e-02  -4.1720642828774572e-02  -3.2760533755844402e-02  -2.3133520507959030e-02  -1.3020546013025944e-02  -2.6027847195828967e-03  8.2959876698733299e-03  1.9479025515795830e-02  -1.1428484682246658e-01  -8.3099247752569522e-02  -1.0736022586963125e-01  -9.0066218014154806e-02  -6.4848544042273484e-02  -3.8017562812866258e-02  -1.4616321586874365e-02  3.1945320290700269e-02  -1.2920433243935822e-01  7.8407575974692861e-03  4.5007199507502794e-02  2.8551233524330949e-02  5.8835380185782216e-02  4.3068079569965292e-02  -7.3874735229912350e-02  4.9330444945610535e-02  7.4150799298278919e-02  -5.0877431928496676e-02  5.1110402614288293e-02  -1.2120091328275089e-01  -8.1063556095041706e-02  8.9189828952144792e-02  5.2011251657681723e-02  -2.0358274424119093e-02  5.0802259612780135e-02  1.0645754089122260e-01  -3.8763321597210061e-03  4.6651513188829020e-02  1.5659159578161358e-02  1.2421666388483049e-01  -7.2400549690127339e-02  4.2334674373332819e-02  2.5860081194483610e-02  -5.8868159395129668e-02  3.8793552740970204e-02  -4.1866107374413694e-02  3.4266894108534549e-02  1.4418837681114394e-01  1.5903345651614009e-01  3.7083726900885405e-02  -6.3614838773954338e-02  -3.5709530205822210e-02  3.3497197999488158e-02  6.4413554716418273e-03  2.8391877762421434e-02  -2.3907635445199020e-02  -9.6489316768329822e-02  4.0379839397525097e-02  2.0093536515928710e-03  4.1798750863444700e-02  2.3434180351924079e-02  1.7524426907424867e-01  2.1211016293904025e-02  3.9489995811777555e-02  1.8541004486335031e-02  4.1362609218715693e-02  1.2671791560187263e-02  3.5953081995997366e-02  6.6540868188707594e-02  3.1470077975413076e-02  9.8542432056608578e-02  2.7005595662456753e-02  1.1817076442651148e-01  1.3630360607492373e-01  2.0959617704255220e-02  1.4342638254496061e-02  1.6768917079382648e-01  1.9072285489669973e-03  2.0143619607454666e-01  -1.2413257229603293e-01  8.1007308752848190e-03  1.8536273290818303e-01  -1.3626506557967796e-01  -1.2316007338330892e-01  -8.1001987624564217e-02  -1.0751394913081084e-02  5.3895251823616257e-02  -1.1306154029738626e-01  7.9231723268505902e-02  1.8609342498452233e-01  1.3404971278999461e-01  -1.1447459784919985e-02  1.1590256750351235e-01  1.4894050313115911e-01  3.0931916534741085e-02  3.8715302266668722e-02  8.0915097819404414e-03  9.8045717321002687e-02  4.1229391280014141e-02  3.3758165157009294e-02  3.6450741743254265e-02  8.1435017359525533e-02  4.0598488771997253e-02  4.4333741804941686e-02  4.8969144227366687e-02  5.1817020292451547e-02  5.1653972163159347e-02  6.6156620077508332e-02  5.0444567924541751e-02  4.7103958952924671e-02  3.6687428793674946e-02  1.8641910113650555e-02  5.1877212272210850e-02  -3.2847426094429729e-03  -2.6186508197169091e-02  -5.1309448025559430e-02  -7.8065720906388081e-02  1.8110737783330589e-03  -9.9595006327509547e-02  3.8400802579226415e-02  2.5682288612932987e-02  2.0101632294352081e-01  1.3386346048911873e-02  2.2577862834964632e-03  -8.6739930693263117e-03  -1.8579170487923638e-02  -2.8060446708398849e-02  -3.7315716731759138e-02  -4.8357200872031054e-02  -5.8789169568965925e-02  -6.8818286407326346e-02  -7.8669008815242469e-02  -8.7862802726407507e-02  -9.5598767656501896e-02  2.0464056583360379e-03  2.0154575087615656e-01  -1.2373343580512551e-01  2.0215412012477044e-01  1.8989506169809309e-03  3.7084994070438883e-03  1.9735092773998844e-01  -1.2361295868529959e-01  -1.2328159061302514e-01  -1.2268463651176018e-01  -1.2312685321705698e-01  -1.2249589368359154e-01  -1.2319817346905786e-01  -1.2244181089429472e-01  -1.2320897099075075e-01  -1.2228445133454836e-01  -1.2289650412284076e-01  -1.2177915028240521e-01  -1.2195876725024908e-01  -1.2077307464150507e-01  -1.2041973301150898e-01  -1.1931032948875193e-01  -1.1861103649857005e-01  -1.1761161910810808e-01  -1.1681036292109398e-01  -1.1584525525442750e-01  -1.1802354138854759e-01  -1.1600442185821883e-01  -1.1763535531324312e-01  -1.1485759010579709e-01  -1.1658055303108164e-01  -1.1677739396632855e-01  -1.1499510404143860e-01  -1.1279328809336528e-01  -1.1434130017499324e-01  -1.1596562564867563e-01  -1.1418864525042069e-01  -1.1267086312967493e-01  -1.1167875985203572e-01  -1.1327861787995062e-01  -1.1049900540352850e-01  -1.1197256703207015e-01  -1.0876656596696771e-01  -1.1013792742807986e-01  -1.0646911033062276e-01  -1.0749721737465910e-01  -1.0325552081818364e-01  -1.0394629012302464e-01  -9.9040926317859157e-02  -9.9371326028619922e-02  -9.3995805060356652e-02  -9.3723210742574295e-02  -8.8144820649137895e-02  -8.7258181218749037e-02  -8.1610130796917729e-02  -8.0069113922026217e-02  -7.4616982121879283e-02  -7.2448114408172587e-02  -6.7368859962050609e-02  -6.4691558168841853e-02  -6.0207949789259967e-02  -5.7015181368187937e-02  -5.3331590080575954e-02  -4.9660402649771507e-02  -4.6565743859011154e-02  -4.2702928815620843e-02  -4.0025235080156249e-02  -3.6166082174133661e-02  -3.4019473827179972e-02  -3.0064873187699567e-02  -2.8361005343033992e-02  -1.0928131145941418e-01  -2.4370625079826583e-02  -2.2975471256165024e-02  -1.8925274249646993e-02  -1.7569084825133814e-02  -1.2329967942320831e-01  -1.3583953099831013e-02  -1.2350741410161747e-02  -8.3062950722672373e-03  -7.5019912762645767e-03  -3.1146161171415297e-03  -2.7688373863527368e-03  2.0828169329875951e-03  1.9247538070034688e-03  7.2050192195210619e-03  6.3752179280381193e-03  1.2149497750611906e-02  -1.0955373980397795e-01  -1.1074580002910357e-01  -1.1573174132297316e-01  -1.1131863393803335e-01  1.0309515264382750e-02  1.6765875233182154e-02  1.4611047163348984e-02  2.0999989926791963e-02  1.8151227655897471e-02  2.4789394863082483e-02  -1.0384911949428569e-01  -1.1636659922660297e-01  -1.1098452751288253e-01  -1.0597297495671423e-01  -1.0511560116872905e-01  -1.0942593129420393e-01  -1.0321576240826585e-01  -1.0661875232387819e-01  -1.0046867794387770e-01  -1.0274842703282656e-01  -9.7109812607489354e-02  -9.8047552090527595e-02  -9.3349385762505552e-02  -9.4035494240494913e-02  -8.9537389326042272e-02  -8.8232330688843577e-02  -8.4903161215617862e-02  -8.6008221073596888e-02  -8.1416856763941850e-02  -8.1765609515331933e-02  -7.7808227424874130e-02  -7.7800332670222822e-02  -7.4238832758001985e-02  -7.3862954101349590e-02  -7.0730433423496136e-02  -7.0431788906388168e-02  -6.7122849487697103e-02  -6.7108866794380800e-02  -6.3684234517179084e-02  -6.3613037795500219e-02  -6.0093560228745874e-02  -6.0126031014559163e-02  -5.6556710861733459e-02  -5.6407193830902501e-02  -5.3108319594247937e-02  -5.2825590238542261e-02  -4.9606165726486760e-02  -4.9244572625820798e-02  -4.6084956451167759e-02  -8.0030551630574459e-02  -4.5649286714454368e-02  -4.2487122537440421e-02  -4.2885479261052871e-02  -3.9336956968036754e-02  -3.8846224372369134e-02  -3.5729290990432261e-02  -1.0021806935165181e-01  2.1061055105242026e-02  2.8002715543998722e-02  -3.5296160129246149e-02  -3.2181013886410009e-02  -3.9506735264743270e-02  -5.3234836639416881e-02  2.3843067117778650e-02  3.0752244508290207e-02  2.6586495694388625e-02  3.3080396070962512e-02  2.8822140982439910e-02  3.5000159026854244e-02  -3.1847671350568742e-02  -2.8635677112084444e-02  -2.9359762413191173e-02  -2.5431771978440418e-02  -2.4793152818741789e-02  -2.1563056786015104e-02  -2.2128802514242273e-02  -1.8341962999840269e-02  -1.7766186057890623e-02  -1.4576802148187592e-02  3.1005302954312908e-02  3.6615592217958660e-02  3.2799637012686657e-02  3.7983610755933532e-02  -8.8047821240656757e-02  -1.4027335143813576e-02  -1.0738929791306301e-02  3.4535816345061456e-02  3.9164342932834793e-02  -1.1288345193246254e-02  -7.4419381972852328e-03  -6.8965751659081252e-03  -3.6088747617987844e-03  3.6180754844455071e-02  4.0252382870908626e-02  3.7559149170442778e-02  4.1249514001948311e-02  -6.2444023515798107e-02  -1.1268413184132454e-01  -8.1796460063100762e-02  -9.8015664277896250e-02  3.8747853750200248e-02  4.2020141871711859e-02  3.9687902214585249e-02  4.2702705407041949e-02  4.0435629720463030e-02  4.3268616702713543e-02  -3.1443691528905780e-03  2.4190986719863336e-04  -2.2829660597578427e-04  3.6676496039402566e-03  4.2401933107624103e-03  7.7062846560400893e-03  7.1577561597814168e-03  1.1172039997043895e-02  1.1681448138883116e-02  1.5147675418813539e-02  -5.2577448025593949e-02  -7.3245412242426394e-02  4.0928708660814724e-02  4.3684340273458529e-02  4.1337366342118702e-02  4.3971643567220407e-02  -4.4046407020491278e-02  -1.2070865674249448e-01  1.5511528890631789e-02  1.9072149645093170e-02  1.8766419384566010e-02  2.2756425651451053e-02  2.3098947226973695e-02  2.6792942724564849e-02  2.6558591477910162e-02  3.0728406318765368e-02  3.0830807599253364e-02  3.4682266679838022e-02  -1.2022617321208394e-01  4.1574542941025000e-02  4.4128738080450751e-02  4.1840908881521123e-02  4.4240622370389060e-02  -2.1503125178643140e-02  -1.1252808480732339e-01  -1.2411420343107013e-01  -3.8279529689786970e-02  -1.0825985601287422e-01  -1.0416748215325548e-01  -1.0316048560335291e-01  4.1959572225818240e-02  4.4203019258158983e-02  4.2184260411610407e-02  4.4084212237025980e-02  4.2389700942749409e-02  4.3906198181141637e-02  -9.8475607386799280e-02  -9.7812398363639752e-02  3.4507150149173223e-02  3.8623469909094238e-02  3.8726130070548336e-02  4.2721376257289639e-02  4.2612316707313004e-02  4.6771545730153033e-02  4.6947837058381077e-02  5.0941336297765698e-02  4.2586579362247544e-02  4.3644303996085938e-02  -9.7918558622401217e-02  -1.7245196632966704e-02  -1.3562881387291149e-02  4.2717725171144208e-02  4.3319657674422550e-02  4.2573494071141409e-02  4.2850650610851804e-02  -4.6009671328624040e-02  5.1132275152240426e-02  5.5144895565266173e-02  5.5340918741662797e-02  5.9364430039286702e-02  -7.2372611438904300e-03  -7.7245751317986666e-02  5.9268680837677001e-02  6.3491677547715550e-02  6.3580798038465919e-02  6.7791821572972755e-02  6.7854364902652051e-02  7.2089463119720393e-02  7.1970733484422941e-02  7.6449327350847890e-02  1.1794744778834904e-02  7.6196785830576763e-02  8.0770936046775030e-02  7.2962591804643685e-03  4.2407912650424588e-02  4.2314595344038176e-02  4.1916101472967253e-02  4.1621296324728982e-02  4.0104307732677882e-02  -2.0521989030069781e-02  3.6578787734877792e-02  -8.9718601415058642e-03  4.6129596424698396e-02  3.0838178883113306e-02  1.2077949288364538e-02  1.9476345141385316e-02  8.0879510647105177e-02  8.5218135840512355e-02  8.5192748250120132e-02  8.9684373094465406e-02  4.6634355940648103e-02  2.2754481093964888e-02  4.3960586094538741e-02  -6.1572192900085428e-02  4.6365788378146429e-02  4.5034587787916379e-02  -3.3178827762327764e-02  4.1228718366014591e-02  4.0808470676568544e-02  4.0311354902263077e-02  3.9869683710804113e-02  3.9240122539328404e-02  3.8829725267830122e-02  -1.0738130088804138e-01  4.5588500921604991e-02  4.2568670955694284e-02  4.3614030094006190e-02  1.0776854921487222e-02  -7.8834181750315653e-03  -7.0099167135674462e-02  -7.2648802918101010e-02  -6.9530564415500790e-02  4.2097493301024802e-02  4.0477061589010578e-02  -9.3349277164440941e-02  -9.2670550655934728e-02  8.9472157407244859e-02  9.3922728801595870e-02  9.4265988309126733e-02  9.8586215406269648e-02  9.8964876441538466e-02  1.0333809480899145e-01  1.0286338002370