<?xml version="1.0"?>
<VTKFile type="UnstructuredGrid"  version="0.1"  >
<UnstructuredGrid>
<Piece  NumberOfPoints="2945" NumberOfCells="5525">
<Points>
<DataArray  type="Float64"  NumberOfComponents="3"  format="ascii">0 0.1 0  0.95 0.1 0  1 0.1 0  1 0 0  1.5 0 0  3 0 0  3 0.3 0  0 0.3 0  0.0197424558707114 0.1 0  0.03915669042224804 0.1 0  0.05824816022699029 0.1 0  0.07702223050332387 0.1 0  0.09548417327144595 0.1 0  0.1136391897583987 0.1 0  0.1314923700144587 0.1 0  0.1490487330862866 0.1 0  0.1663132263225292 0.1 0  0.1832906857273058 0.1 0  0.1999858946008978 0.1 0  0.216403545770297 0.1 0  0.2325482404045023 0.1 0  0.2484245348165176 0.1 0  0.2640368740372501 0.1 0  0.2793896589642241 0.1 0  0.2944872056237027 0.1 0  0.3093337469555254 0.1 0  0.3239334613687816 0.1 0  0.3382904528528069 0.1 0  0.3524087553122972 0.1 0  0.3662923366391824 0.1 0  0.3799451014768399 0.1 0  0.393370886920506 0.1 0  0.4065734648871676 0.1 0  0.419556546320114 0.1 0  0.4323237821343415 0.1 0  0.4448787573056132 0.1 0  0.4572250047274954 0.1 0  0.4693659926332938 0.1 0  0.4813051343276231 0.1 0  0.4930457849308193 0.1 0  0.5045912455271677 0.1 0  0.5159447600209797 0.1 0  0.5271095174127136 0.1 0  0.5380886618453393 0.1 0  0.5488852725463512 0.1 0  0.5595023868312478 0.1 0  0.5699429904313016 0.1 0  0.5802100167387366 0.1 0  0.5903063508274641 0.1 0  0.6002348329443006 0.1 0  0.6099982499579832 0.1 0  0.6195993483501782 0.1 0  0.6290408246013842 0.1 0  0.6383253354321616 0.1 0  0.6474554910757137 0.1 0  0.6564338522440513 0.1 0  0.6652629482939147 0.1 0  0.6739452579188948 0.1 0  0.6824832240165607 0.1 0  0.6908792415022103 0.1 0  0.6991356755989045 0.1 0  0.7072548438546967 0.1 0  0.7152390281534421 0.1 0  0.7230904746196039 0.1 0  0.7308113906759266 0.1 0  0.7384039435269326 0.1 0  0.7458702676581656 0.1 0  0.7532124631720397 0.1 0  0.7604325921167397 0.1 0  0.7675326856666862 0.1 0  0.7745147374421916 0.1 0  0.7813807123989068 0.1 0  0.7881325374362798 0.1 0  0.7947721131625659 0.1 0  0.8013013031866276 0.1 0  0.8077219449067021 0.1 0  0.8140358419942376 0.1 0  0.8202447685401882 0.1 0  0.8263504700910924 0.1 0  0.8323546643163114 0.1 0  0.8382590362474568 0.1 0  0.8440652473522128 0.1 0  0.8497749272799842 0.1 0  0.8553896837646281 0.1 0  0.8609110933285474 0.1 0  0.866340708855119 0.1 0  0.8716800550492284 0.1 0  0.8769306339052932 0.1 0  0.8820939206038667 0.1 0  0.8871713655604893 0.1 0  0.8921643975475726 0.1 0  0.8970744196575535 0.1 0  0.9019028106970642 0.1 0  0.9066509291259979 0.1 0  0.9113201098984042 0.1 0  0.9159116634553873 0.1 0  0.9204268818729691 0.1 0  0.9248670319440222 0.1 0  0.9292333656649013 0.1 0  0.9335271075812669 0.1 0  0.9377494640511216 0.1 0  0.941901623463222 0.1 0  0.9459847526686701 0.1 0  0.9538461538461205 0.1 0  0.9576923076922409 0.1 0  0.9615384615384381 0.1 0  0.9653846153846337 0.1 0  0.9692307692307542 0.1 0  0.9730769230768747 0.1 0  0.9769230769229952 0.1 0  0.9807692307691157 0.1 0  0.9846153846152361 0.1 0  0.9884615384614317 0.1 0  0.9923076923076356 0.1 0  0.9961538461538395 0.1 0  1 0.09591793123533533 0  1 0.09133596463859224 0  1 0.08619288104391448 0  1 0.08041996484521211 0  1 0.07394008421771697 0  1 0.06666666567302955 0  1 0.05850252932209174 0  1 0.04933859630113544 0  1 0.03905242821848202 0  1 0.02750659386753798 0  1 0.01454683679239736 0  1.015625 0 0  1.03125 0 0  1.046875 0 0  1.0625 0 0  1.078125 0 0  1.09375 0 0  1.109375 0 0  1.125 0 0  1.140625 0 0  1.15625 0 0  1.171875 0 0  1.1875 0 0  1.203125 0 0  1.21875 0 0  1.234375 0 0  1.25 0 0  1.265625 0 0  1.28125 0 0  1.296875 0 0  1.3125 0 0  1.328125 0 0  1.34375 0 0  1.359375 0 0  1.375 0 0  1.390625 0 0  1.40625 0 0  1.421875 0 0  1.4375 0 0  1.453125 0 0  1.46875 0 0  1.484375 0 0  1.515920751924515 0 0  1.531989369316721 0 0  1.54820720925872 0 0  1.564575665560501 0 0  1.581096138674279 0 0  1.597770029901263 0 0  1.614598783332311 0 0  1.631583831055205 0 0  1.64872661129721 0 0  1.666028606716533 0 0  1.683491276608443 0 0  1.701116134125304 0 0  1.718904673324128 0 0  1.736858414799339 0 0  1.754978895814663 0 0  1.773267661782904 0 0  1.791726281103402 0 0  1.810356325314689 0 0  1.8291593848892 0 0  1.848137076690385 0 0  1.867291007717254 0 0  1.886622833871288 0 0  1.90613418642363 0 0  1.925826753299799 0 0  1.945702199101513 0 0  1.96576223584749 0 0  1.986008569283268 0 0  2.006442931928877 0 0  2.02706707547783 0 0  2.047882750887917 0 0  2.06889175187935 0 0  2.090095860038271 0 0  2.111496891648636 0 0  2.133096679109554 0 0  2.154897066851056 0 0  2.176899916687499 0 0  2.199107102752146 0 0  2.22152053937028 0 0  2.244142122958061 0 0  2.266973806444078 0 0  2.290017523268154 0 0  2.313275249499252 0 0  2.336748971745516 0 0  2.360440702338606 0 0  2.384352453384031 0 0  2.408486280477412 0 0  2.432844240041185 0 0  2.457428414757088 0 0  2.482240901796653 0 0  2.507283830121838 0 0  2.532559332080812 0 0  2.558069568787417 0 0  2.583816724966441 0 0  2.60980299606584 0 0  2.636030600971886 0 0  2.662501790984011 0 0  2.689218818279327 0 0  2.716183964547616 0 0  2.743399548861297 0 0  2.77086788244719 0 0  2.798591312896326 0 0  2.826572223178268 0 0  2.854812990138617 0 0  2.883316031690714 0 0  2.912083780657189 0 0  2.941118704633482 0 0  2.970423276998917 0 0  3 0.02999999999994495 0  3 0.05999999999987042 0  3 0.089999999999783 0  3 0.119999999999701 0  3 0.149999999999619 0  3 0.179999999999692 0  3 0.2099999999997737 0  3 0.2399999999998511 0  3 0.2699999999999185 0  2.970138294777171 0.3 0  2.940375666438236 0.3 0  2.910711782853056 0.3 0  2.881146331305122 0.3 0  2.851678975030285 0.3 0  2.822309388626621 0.3 0  2.793037250095074 0.3 0  2.76386223529133 0.3 0  2.734784017903872 0.3 0  2.705802289276642 0.3 0  2.676916713794697 0.3 0  2.648126987654635 0.3 0  2.619432780406184 0.3 0  2.590833779385199 0.3 0  2.562329669847737 0.3 0  2.533920134950189 0.3 0  2.505604855727852 0.3 0  2.477383539822502 0.3 0  2.449255847639465 0.3 0  2.421221492569094 0.3 0  2.393280152486815 0.3 0  2.36543151914496 0.3 0  2.337675285481809 0.3 0  2.310011142385583 0.3 0  2.282438797441587 0.3 0  2.254957931061538 0.3 0  2.227568248063605 0.3 0  2.200269436651085 0.3 0  2.173061204949961 0.3 0  2.145943251515011 0.3 0  2.118915272469994 0.3 0  2.091976978084957 0.3 0  2.065128060700849 0.3 0  2.038368218849433 0.3 0  2.01169717777258 0.3 0  1.985114624111908 0.3 0  1.958620267850966 0.3 0  1.93221382054972 0.3 0  1.905894991850698 0.3 0  1.879663489459713 0.3 0  1.853519019126419 0.3 0  1.827461291053897 0.3 0  1.801490031354372 0.3 0  1.775604937580312 0.3 0  1.74980572560258 0.3 0  1.724092118631866 0.3 0  1.698463829173586 0.3 0  1.672920575782554 0.3 0  1.647462076974085 0.3 0  1.622088043536933 0.3 0  1.5967981978949 0.3 0  1.571592267767068 0.3 0  1.546469970305736 0.3 0  1.521431023814044 0.3 0  1.496475156230927 0.3 0  1.471602093687753 0.3 0  1.446811560490646 0.3 0  1.422103279101731 0.3 0  1.397476971708191 0.3 0  1.37293238939876 0.3 0  1.348469231419202 0.3 0  1.324087248732772 0.3 0  1.299786165921677 0.3 0  1.275565710847046 0.3 0  1.251425617644257 0.3 0  1.227365618676339 0.3 0  1.203385446174014 0.3 0  1.179484853067473 0.3 0  1.155663548773374 0.3 0  1.131921292279077 0.3 0  1.108257802159295 0.3 0  1.084672829009693 0.3 0  1.061166115303374 0.3 0  1.037737392995421 0.3 0  1.01438640299116 0.3 0  0.991112899770314 0.3 0  0.9679166155523955 0.3 0  0.944797284182564 0.3 0  0.921754678526042 0.3 0  0.8987885143602501 0.3 0  0.8758985548820624 0.3 0  0.8530845484099929 0.3 0  0.8303462351786988 0.3 0  0.8076833651172373 0.3 0  0.7850956864865304 0.3 0  0.7625829601354557 0.3 0  0.7401449314598274 0.3 0  0.717781337993959 0.3 0  0.6954919649675473 0.3 0  0.6732765357561226 0.3 0  0.6511348120768439 0.3 0  0.6290665642016573 0.3 0  0.6070715355430467 0.3 0  0.5851494825775325 0.3 0  0.5633001690203812 0.3 0  0.5415233562273221 0.3 0  0.5198187909431873 0.3 0  0.4981862401387795 0.3 0  0.4766254686134248 0.3 0  0.4551362360485234 0.3 0  0.4337182975262159 0.3 0  0.4123714223228037 0.3 0  0.3910953802377493 0.3 0  0.3698899313205595 0.3 0  0.3487548463710963 0.3 0  0.3276898864081783 0.3 0  0.3066948129116018 0.3 0  0.2857694003037476 0.3 0  0.2649134227095047 0.3 0  0.2441266417321288 0.3 0  0.2234088223399122 0.3 0  0.2027597568977288 0.3 0  0.1821792020676698 0.3 0  0.1616669305402443 0.3 0  0.1412227158799362 0.3 0  0.12084633013886 0.3 0  0.1005375673448281 0.3 0  0.08029618164595353 0.3 0  0.06012194778526769 0.3 0  0.04001466495039718 0.3 0  0.01997408913631205 0.3 0  0 0.2800000000000553 0  0 0.2600000000001105 0  0 0.2400000000001658 0  0 0.2200000000002211 0  0 0.2000000000002764 0  0 0.1800000000002244 0  0 0.1600000000001691 0  0 0.140000000000115 0  0 0.1200000000000564 0  1.133778471000506 0.01219539743990768 0  1.003741919047894 0.09354664821474232 0  0.9559421147150347 0.1035858189992458 0  0.9313792160389045 0.1037365237938103 0  0.9788461538460573 0.1033060829993555 0  0.9090102438250753 0.1037269304984056 0  0.8846304212778655 0.1043349840723655 0  0.8581503885465881 0.104741932962923 0  0.8286416220145676 0.1052762843984476 0  0.7982741772533339 0.1053575624517407 0  0.7708789559342691 0.1060290465840416 0  0.741870349714261 0.1078220590984258 0  0.7112469360040695 0.10685702926368 0  0.6783901541417233 0.1079959711853378 0  0.642884733623195 0.1075561996086514 0  0.6056235042367955 0.1085956039602543 0  0.5647007593786924 0.1083187281660325 0  1.1953125 0.01353164693413185 0  1.258148737344733 0.01268350115427042 0  1.320087046516829 0.01426312402966312 0  1.383495130751951 0.01432665475473204 0  1.4453125 0.01315663539200989 0  1.50886768312388 0.01395488397722681 0  0.9942307692307371 0.103330866937657 0  1.119309781943483 0.2802014914557878 0  1.572831235329714 0.01707210522554785 0  1.637611634353954 0.01209340368483431 0  1.709661292005932 0.0146870244871893 0  1.006561890631532 0.07068055446055937 0  1.784793444007901 0.01499371444634687 0  1.855459587353174 0.0
[...]
<PointData  Scalars="pressure"> 
<DataArray  type="Float64"  Name="pressure"  format="ascii">-9.2621231362006302e+00  -1.0055977282894231e+01  -9.7177152935913380e+00  -8.9990401431459333e+00  -6.9164841334756284e+00  0.0000000000000000e+00  0.0000000000000000e+00  -9.2621125425819351e+00  -9.2680458636702863e+00  -9.2738702613148760e+00  -9.2795980066154371e+00  -9.2852307359695843e+00  -9.2907700864855904e+00  -9.2962176217560852e+00  -9.3015748913823675e+00  -9.3068435153880102e+00  -9.3120249013075593e+00  -9.3171206305434602e+00  -9.3221322743744039e+00  -9.3270611827532868e+00  -9.3319089096594823e+00  -9.3366768654634846e+00  -9.3413665634521887e+00  -9.3459793983082537e+00  -9.3505169227826777e+00  -9.3549804602192594e+00  -9.3593715905742272e+00  -9.3636916380333091e+00  -9.3679423090627001e+00  -9.3721251404121926e+00  -9.3762409069188148e+00  -9.3802919282990640e+00  -9.3842794007331474e+00  -9.3882052396814970e+00  -9.3920711915328283e+00  -9.3958765898681555e+00  -9.3996275880025451e+00  -9.4033213885703955e+00  -9.4069646759846623e+00  -9.4105536349755390e+00  -9.4140941934837148e+00  -9.4175871817627108e+00  -9.4210370551520075e+00  -9.4244430712753466e+00  -9.4278087149617615e+00  -9.4311368170660010e+00  -9.4344278848784775e+00  -9.4376888912180998e+00  -9.4409200821701091e+00  -9.4441238043794655e+00  -9.4473106614361004e+00  -9.4504767397324745e+00  -9.4536241229184288e+00  -9.4567661092753639e+00  -9.4599004226330017e+00  -9.4630323347402392e+00  -9.4661774666770437e+00  -9.4693117511648239e+00  -9.4724959060058751e+00  -9.4756446337213553e+00  -9.4788772072601226e+00  -9.4821350084695410e+00  -9.4854344084824227e+00  -9.4887757467441762e+00  -9.4921910461076848e+00  -9.4956539470063159e+00  -9.4992844676754586e+00  -9.5029531675858081e+00  -9.5066479424053867e+00  -9.5105331195568912e+00  -9.5145663402993801e+00  -9.5188125342650025e+00  -9.5230979196960774e+00  -9.5275734988261096e+00  -9.5322604237739075e+00  -9.5371964980339143e+00  -9.5423732072947125e+00  -9.5477650073768157e+00  -9.5534437174308326e+00  -9.5594802072823430e+00  -9.5659439093583281e+00  -9.5727155720614547e+00  -9.5798358911235812e+00  -9.5874935454306041e+00  -9.5956084577715153e+00  -9.6042721050500504e+00  -9.6137633039297015e+00  -9.6239351893570380e+00  -9.6346517823498328e+00  -9.6462096177419170e+00  -9.6588325456174626e+00  -9.6725336680508995e+00  -9.6874056818316365e+00  -9.7036875906959601e+00  -9.7214629855123018e+00  -9.7408550039684094e+00  -9.7621616002951903e+00  -9.7864635254406309e+00  -9.8143420865460644e+00  -9.8460819785811324e+00  -9.8829909260627673e+00  -9.9263574375812755e+00  -9.9810033217138532e+00  -1.0160131019099047e+01  -1.0268929538601684e+01  -1.0361675300860442e+01  -1.0428864518106364e+01  -1.0466359750374499e+01  -1.0471447329851680e+01  -1.0444025386767985e+01  -1.0384104528362133e+01  -1.0291229257350038e+01  -1.0169387106278537e+01  -1.0026544551768417e+01  -9.8133512823949491e+00  -9.5439884933895627e+00  -9.3806774266461730e+00  -9.3034961637279672e+00  -9.2389543278633628e+00  -9.1891551247882806e+00  -9.1424765374340318e+00  -9.1027456162657501e+00  -9.0685012405243537e+00  -9.0386418213615904e+00  -9.0161281613770630e+00  -9.0030969404153520e+00  -8.9934521040282824e+00  -8.9751875139973745e+00  -8.9458331865324965e+00  -8.9068575973465816e+00  -8.8577717232889128e+00  -8.8047074741796294e+00  -8.7523809802124806e+00  -8.6948221167036905e+00  -8.6321420845692316e+00  -8.5674198864766957e+00  -8.5001242499372225e+00  -8.4300885992311780e+00  -8.3590769075941100e+00  -8.2863390992544534e+00  -8.2124117982381808e+00  -8.1380210463453455e+00  -8.0631491271568922e+00  -7.9867119969504108e+00  -7.9097791871494634e+00  -7.8384056771504369e+00  -7.7574008771572895e+00  -7.6848450395288541e+00  -7.6058539750046847e+00  -7.5275541174784077e+00  -7.4469986470488783e+00  -7.3790192525372618e+00  -7.2985518823750821e+00  -7.2225838836614580e+00  -7.1456591709709425e+00  -7.0695009009625807e+00  -6.9930203731073828e+00  -6.8384598353898678e+00  -6.7603062588183924e+00  -6.6820265056680119e+00  -6.6039723081759334e+00  -6.5197472942654073e+00  -6.4376782645504171e+00  -6.3526624287141926e+00  -6.2811776090481635e+00  -6.2005509502374316e+00  -6.1169484563591237e+00  -6.0331713898079018e+00  -5.9500963648395286e+00  -5.8660270505570660e+00  -5.7815032610524906e+00  -5.6955894959819826e+00  -5.6091769745954752e+00  -5.5218040955262833e+00  -5.4414567686902728e+00  -5.3494184737403208e+00  -5.2678288711269703e+00  -5.1787263870560434e+00  -5.0883029761477410e+00  -4.9991570274422497e+00  -4.9074180641716776e+00  -4.8166381819704736e+00  -4.7181381360219454e+00  -4.6262993561906711e+00  -4.5321482175381824e+00  -4.4383485671478340e+00  -4.3518440360098340e+00  -4.2564643591252702e+00  -4.1578107494566545e+00  -4.0587011219694737e+00  -3.9612879048828478e+00  -3.8614763364024003e+00  -3.7612848344663541e+00  -3.6590433265394386e+00  -3.5567284028097843e+00  -3.4530873526567873e+00  -3.3481994555873529e+00  -3.2422740144637285e+00  -3.1359073401421727e+00  -3.0282743455684669e+00  -2.9194780879034643e+00  -2.8088476901013220e+00  -2.6990505527479245e+00  -2.5884510277914918e+00  -2.4748629816737551e+00  -2.3601275397871868e+00  -2.2539345221883811e+00  -2.1312919458555326e+00  -2.0218476081075667e+00  -1.8977745590683082e+00  -1.7768379252044253e+00  -1.6658539034037441e+00  -1.5370625056720819e+00  -1.4220930105632512e+00  -1.2950527613408616e+00  -1.1678314417819691e+00  -1.0398525279795523e+00  -9.2534281518347994e-01  -7.8944936953269473e-01  -6.6363276782804814e-01  -5.3642125364173843e-01  -3.9408477538913594e-01  -2.7374227926579758e-01  -1.3283883718625655e-01  0.0000000000000000e+00  0.0000000000000000e+00  0.0000000000000000e+00  0.0000000000000000e+00  0.0000000000000000e+00  0.0000000000000000e+00  0.0000000000000000e+00  0.0000000000000000e+00  0.0000000000000000e+00  -1.2938885624617197e-01  -2.6487419867628442e-01  -4.0897816376270302e-01  -5.4325440969034111e-01  -6.7692899731311929e-01  -8.0971527932399667e-01  -9.4319834909565581e-01  -1.0763922380484447e+00  -1.2091725492569516e+00  -1.3414682609492590e+00  -1.4734491115930957e+00  -1.6048002500465721e+00  -1.7355850078599431e+00  -1.8661231258857784e+00  -1.9963901654815501e+00  -2.1265421388115322e+00  -2.2561482067796912e+00  -2.3850841779716738e+00  -2.5137428798422143e+00  -2.6421046658955452e+00  -2.7703408611843869e+00  -2.8981741176584066e+00  -3.0258618410416291e+00  -3.1530518903155236e+00  -3.2817178687422470e+00  -3.4077193665835703e+00  -3.5332001489355838e+00  -3.6581046918117335e+00  -3.7802447042211811e+00  -3.9034472845854102e+00  -4.0294038754287058e+00  -4.1572124868581488e+00  -4.2858142261289078e+00  -4.4090670709042179e+00  -4.5282885314612598e+00  -4.6437115730064491e+00  -4.7736537103295031e+00  -4.8947624109744208e+00  -5.0165755156203629e+00  -5.1437280032389490e+00  -5.2564591775573852e+00  -5.3817952766289148e+00  -5.5050092645010125e+00  -5.6275966097585979e+00  -5.7500828757930575e+00  -5.8717564299147975e+00  -5.9898223691435772e+00  -6.1091060556734087e+00  -6.2328581832830876e+00  -6.3538148293278027e+00  -6.4720542703814683e+00  -6.5885281151817470e+00  -6.7147290176546530e+00  -6.8312510026678028e+00  -6.9484568401848268e+00  -7.0668943432570517e+00  -7.1858093388195483e+00  -7.3032034263788335e+00  -7.4208340045261130e+00  -7.5384982127504943e+00  -7.6548944094363414e+00  -7.7688175668750548e+00  -7.8865702391617898e+00  -8.0019603737468152e+00  -8.1150604363415155e+00  -8.2244548942864366e+00  -8.3370227013161493e+00  -8.4471984044540047e+00  -8.5566577196895235e+00  -8.6655005577098816e+00  -8.7732534976205390e+00  -8.8824128346812063e+00  -8.9817388914059109e+00  -9.0745139828782868e+00  -9.1578107003985831e+00  -9.2367534760013577e+00  -9.3022175500304911e+00  -9.3555521944940416e+00  -9.3942955597910061e+00  -9.4241384652223292e+00  -9.4459194310631052e+00  -9.4602478121307314e+00  -9.4695542607843048e+00  -9.4740926070661189e+00  -9.4754012151832576e+00  -9.4744546510075516e+00  -9.4721613673828529e+00  -9.4685874095141074e+00  -9.4641444546454281e+00  -9.4591891828068366e+00  -9.4537698236143211e+00  -9.4480723853587865e+00  -9.4421488149130379e+00  -9.4360715244868540e+00  -9.4298905355216416e+00  -9.4236497814163993e+00  -9.4173436329663165e+00  -9.4110187251145891e+00  -9.4046739837060240e+00  -9.3983255219541810e+00  -9.3919749908388397e+00  -9.3856266985020849e+00  -9.3792883337073949e+00  -9.3729606234418466e+00  -9.3666472681511284e+00  -9.3603479248257866e+00  -9.3540654792952651e+00  -9.3478008995404576e+00  -9.3415536816834610e+00  -9.3353256580628265e+00  -9.3291164530823938e+00  -9.3229264779883518e+00  -9.3167561693110734e+00  -9.3106053841142096e+00  -9.3044743992407355e+00  -9.2983632086157986e+00  -9.2922718493564798e+00  -9.2862003321354258e+00  -9.2801486480745012e+00  -9.2741167962304676e+00  -9.2681047668962666e+00  -9.2621125722349582e+00  -9.2621130201972317e+00  -9.2621141145394628e+00  -9.2621157966790761e+00  -9.2621178369871160e+00  -9.2621198712430868e+00  -9.2621215594775723e+00  -9.2621226449147436e+00  -9.2621230970950243e+00  -8.6589534285584566e+00  -9.4154467983218932e+00  -1.0164580565546004e+01  -9.8283125197810364e+00  -1.0308688290287197e+01  -9.7119440227116218e+00  -9.6401184881536004e+00  -9.5914184529798145e+00  -9.5557085465664251e+00  -9.5300764814874750e+00  -9.5124695651848352e+00  -9.4973287836380091e+00  -9.4837892387790124e+00  -9.4709722144983459e+00  -9.4583396948029250e+00  -9.4458897047170876e+00  -9.4327800766536001e+00  -8.3946136992138687e+00  -8.0993461920908061e+00  -7.7987699966440456e+00  -7.4860032070913336e+00  -7.1840815668475964e+00  -6.8731866164148654e+00  -9.9035998462444788e+00  -8.7233207981152709e+00  -6.5616373024238843e+00  -6.2513802866326875e+00  -5.9096530361229425e+00  -9.1609140800315494e+00  -5.5563262401005886e+00  -5.2321339846310817e+00  -9.4194231743323211e+00  -4.8609558879773518e+00  -8.2805571292296669e+00  -7.8265393990105432e+00  -4.4716640611169831e+00  -7.3600208750733325e+00  -9.4049325619099449e+00  -6.7862375191886040e+00  -4.1134445949762037e+00  -9.3908033854115640e+00  -8.8313138985964095e+00  -3.7096050365602311e+00  -6.1695322353377877e+00  -9.0248500846775315e+00  -9.3746446198647373e+00  -3.2951273370932026e+00  -5.4439766025307783e+00  -9.3568801337538829e+00  -5.0862506241576400e+00  -2.8646142134657149e+00  -4.7024951688913506e+00  -9.3256544427650585e+00  -2.4059196405273520e+00  -9.3390219995021369e+00  -4.3412537025082454e+00  -9.4367964249409173e+00  -9.4728069789615077e+00  -3.9649609525812322e+00  -1.9618489310444212e+00  -9.3191291447230284e+00  -9.3043268462837823e+00  -5.8102386754222044e+00  -1.6017287855878724e+00  -1.2187723532339176e+00  -9.4707132206509410e+00  -3.5912493068462132e+00  -3.0806894979111852e+00  -9.4563306594364125e+00  -9.9480232632024990e+00  -1.0352188841730683e+01  -9.4392859591105243e+00  -2.7051917859680983e+00  -8.6222310162826488e-01  -9.4150480929157609e+00  -2.1911794105550202e+00  -9.3826328038362927e+00  -1.8014057427607928e+00  -9.3509329903371281e+00  -1.4085470967389189e+00  -9.3323227751490130e+00  -9.2954481229271622e+00  -9.3135355662393788e+00  -1.0102176034077945e+00  -9.2671606026706872e+00  -1.2516694862088631e-01  -9.2878107875944025e+00  -9.0468336443933008e+00  -6.2160921541491265e-01  -4.5594315005118968e-01  -9.2580571759015182e+00  -8.9311146848284277e+00  -9.1935094319938244e+00  -8.5047710479362415e+00  -9.4753015827409115e+00  -9.4267345692476745e+00  -9.4018074461111301e+00  -9.3690663122944375e+00  -6.5300852419691040e+00  -7.1225493549122616e+00  -7.5848294627914772e+00  -8.0566949926290672e+00  -9.3294852491854101e+00  -9.3481673067323019e+00  -3.3431835884950525e+00  -2.4497914874470741e+00  -9.3653525042991976e+00  -2.1981010612405014e+00  -9.2832711739332776e+00  -2.6381199441978884e+00  -3.0819556151035754e+00  -9.3825922288625971e+00  -3.5044445694445372e+00  -9.2671924246432180e+00  -3.9135497918251709e+00  -9.3976529238136486e+00  -4.3155922964850060e+00  -4.6632889956603751e+00  -6.7210630202935793e+00  -5.0516974762769067e+00  -9.4124623246307522e+00  -5.3955215549604363e+00  -5.7387960665618660e+00  -6.0790947406744005e+00  -9.4262435583995252e+00  -6.3944692284285676e+00  -1.0598867440461496e-01  -9.4393081031858816e+00  -9.4520981756272047e+00  -9.4648775493055499e+00  -9.4769032781633769e+00  -9.4907155665181122e+00  -9.5048325994772238e+00  -9.5213562362961977e+00  -9.5450134911525293e+00  -8.5293150359087182e+00  -9.5761543817524633e+00  -9.6187475775799882e+00  -9.6795073350376644e+00  -8.2496837544447619e+00  -9.7697414531843148e+00  -7.6472426007408076e+00  -7.9423030137086643e+00  -7.3487695465776648e+00  -7.0312002089333419e+00  -9.2667672500262910e+00  -1.0147385139654086e+01  -1.2611727553466301e-01  -9.2767727839963641e+00  -3.3723636592452166e-01  -8.9873182811596468e+00  -1.0649035492231677e-01  -9.2666359408653207e+00  -8.9640262546784015e+00  -8.9561371676383761e+00  -8.9232615600147653e+00  -8.9508563929389204e+00  -8.9169547775627702e+00  -8.9463182623484965e+00  -8.9088711286481548e+00  -8.9417138142484429e+00  -8.9016137021111383e+00  -8.9360134004771279e+00  -8.8929572401052059e+00  -8.9294082214197523e+00  -8.8821148147031419e+00  -8.9199893953710063e+00  -8.8692262257194638e+00  -8.9076264614849485e+00  -8.8531038522399150e+00  -8.8931866542847882e+00  -8.8353776817239353e+00  -8.8740885521260751e+00  -8.8122728886557109e+00  -8.9384683835887149e+00  -8.7683627230444579e+00  -8.7447758935519371e+00  -8.9135739796398479e+00  -8.9825064448007392e+00  -8.6989231513720746e+00  -8.6709407093756568e+00  -8.6306069245477914e+00  -8.5954084094540164e+00  -8.5536647983422096e+00  -8.5172645867178129e+00  -8.4740563885096503e+00  -8.4389100764971658e+00  -8.3912173329373072e+00  -8.3559244662275489e+00  -8.3043372304741272e+00  -8.2615894606847604e+00  -8.2137270775695033e+00  -8.1729064300700305e+00  -8.1224553379067999e+00  -8.0759252402029809e+00  -8.0286710812220221e+00  -7.9860460048758766e+00  -7.9354898141545505e+00  -7.8929457181152411e+00  -7.8411709501028053e+00  -7.8010514671008684e+00  -7.7468619317750482e+00  -7.7063188125611370e+00  -7.6526621333830009e+00  -8.9516083884737050e+00  -9.0213569646347178e+00  -7.6097325975197432e+00  -7.5517432066340771e+00  -7.5136228788757391e+00  -7.4567819707373744e+00  -7.4194503970118930e+00  -7.3651220186001467e+00  -7.3240613312436897e+00  -7.2702195895597423e+00  -7.2281612311213443e+00  -7.1740226341664872e+00  -8.7137369550535357e+00  -7.1319627954235223e+00  -7.0770335856348741e+00  -7.0352977109215580e+00  -6.9797840493620553e+00  -6.9385228827336567e+00  -6.8824099554215161e+00  -8.9898589463094538e+00  -9.0617262734967383e+00  -8.9711921977086675e+00  -6.8410107167048908e+00  -6.7840547028300993e+00  -9.0563888831469495e+00  -6.7425953356277395e+00  -6.6853301617430416e+00  -6.6441216648076686e+00  -6.5864988926242525e+00  -6.5451062071115489e+00  -6.4868005481397866e+00  -8.4888368283193358e+00  -6.4463558376371166e+00  -6.3869693010507307e+00  -6.3459210037197256e+00  -6.2865518627749726e+00  -6.2454037552138573e+00  -6.1857216191217086e+00  -8.8307992525393697e+00  -8.2197790715298051e+00  -6.1444673457088310e+00  -6.0847059509047217e+00  -9.0278502945118060e+00  -9.1106762395598722e+00  -8.9542159095898288e+00  -7.9424217200270739e+00  -6.0437764080916025e+00  -5.9812263937822978e+00  -5.9416805549713372e+00  -5.8776887593643474e+00  -5.8389755811883788e+00  -5.7765288010558988e+00  -6.8254501578031359e+00  -6.0199506440606063e+00  -6.5289642330259143e+00  -7.1194906012542507e+00  -5.7364621700157672e+00  -5.6750303076821531e+00  -5.7156259091445731e+00  -5.6153979013639725e+00  -5.5731105275709876e+00  -5.5153717161041049e+00  -5.4708144160435284e+00  -5.4125964622410923e+00  -5.3676717293904561e+00  -5.3079297257813582e+00  -5.2639516331273830e+00  -5.2039123742290414e+00  -5.1596150550285591e+00  -5.0995462011169730e+00  -5.0550783030649686e+00  -4.9945861584536004e+00  -4.9493092612267704e+00  -4.8888312929074722e+00  -4.8430994331933128e+00  -4.7821499419141267e+00  -4.7361784366136686e+00  -4.6752919206474903e+00  -4.6289482567325475e+00  -4.5675384154935097e+00  -7.4032605037293120e+00  -7.6612990938183909e+00  -4.5207856450992860e+00  -4.4596121449489248e+00  -4.4117844477678290e+00  -4.3502195442278513e+00  -8.5084536179857224e+00  -4.3009181641283956e+00  -4.2401778780389217e+00  -7.8850391825649329e+00  -8.1644325872674131e+00  -9.0631659525398671e+00  -9.1356160947025415e+00  -9.1946831459651506e+00  -9.2210894398796093e+00  -9.2793075222485903e+00  -9.2991748732254820e+00  -9.3595254935448366e+00  -9.3688852981564228e+00  -9.4338587583936615e+00  -9.4282689443159260e+00  -9.4960681737662629e+00  -9.4754001555618377e+00  -9.5441039558473761e+00  -9.5146806259102537e+00  -9.5866144489120089e+00  -9.5475671367579729e+00  -9.5987477877254523e+00  -9.5589994159873335e+00  -9.6060103492224567e+00  -9.5747368238285055e+00  -9.6081613008357056e+00  -9.5783648230635201e+00  -9.6048916118416212e+00  -9.5776899195840812e+00  -9.5983159938980531e+00  -9.5743236659495654e+00  -9.5905492049910475e+00  -9.5694285535358006e+00  -9.5482907706413762e+00  -9.5530994861132132e+00  -9.5505956053013712e+00  -9.5635565692441791e+00  -9.5471096933438115e+00  -9.5571541101836122e+00  -9.5428562505561061e+00  -9.5506903986155454e+00  -9.5381960897637708e+00  -9.5330664957133759e+00  -9.5461545960844880e+00  -9.5333892492224663e+00  -9.5379980218650875e+00  -9.5280530028793038e+00  -9.5229110758915390e+00  -9.5188657125239011e+00  -9.5228176675695853e+00  -9.5147143487287522e+00  -9.5173787953274864e+00  -9.5103472902564459e+00  -9.3385716551795674e+00  -9.5120749732462055e+00  -9.5059085404212844e+00  -9.5034698711609398e+00  -9.4997226783977933e+00  -9.5015698258409635e+00  -9.4958816572968168e+00  -9.4972232544544468e+00  -9.4919414687391281e+00  -9.6171262294851498e+00  -9.4994129241761698e+00  -9.5106951170185869e+00  -9.6443510072148477e+00  -9.4930071856765803e+00  -9.4879369801894704e+00  -9.4869039405184878e+00  -9.4831522114143212e+00  -9.4838565898634322e+00  -9.4793324587375523e+00  -9.4797107938035925e+00  -9.4754177598681544e+00  -9.4750070564302167e+00  -9.4712978916267421e+00  -9.4713893074708242e+00  -9.4674557174979732e+00  -9.5136614967775337e+00  -9.4673131934582013e+00  -9.4635759872079923e+00  -9.6374139870190412e+00  -9.3635780119267249e+00  -9.4972234360444094e+00  -9.6142614034911951e+00  -9.4632851906476692e+00  -9.4595493543913349e+00  -9.4600938097189644e+00  -9.4558963602506587e+00  -9.4555806566420788e+00  -9.4518356075705743e+00  -9.4521709449140801e+00  -9.4481607813807251e+00  -9.4477503622428287e+00  -9.4441256102507474e+00  -9.5645704693751838e+00  -9.4436588112596169e+00  -9.4400012861170346e+00  -9.4707345756139105e+00  -9.5236345707125292e+00  -7.3776108795879116e+00  -9.5481855639795317e+00  -9.4405008772908161e+00  -9.4363822705258720e+00  -9.4358480690051216e+00  -9.4322488813891905e+00  -4.1904820621092682e+00  -4.1302068451304370e+00  -4.0805417063800293e+00  -4.0186359099572488e+00  -3.9687779483971517e+00  -3.9062832840915069e+00  -9.4315220985225761e+00  -9.4279873388049076e+00  -6.8967438519139650e+00  -9.4286117270280556e+00  -9.4243888630985477e+00  -9.4238718357209219e+00  -9.4201833458588773e+00  -8.9787079872968611e+00  -9.1876108888403003e+00  -9.5028227775914385e+00  -5.1439889081182413e+00  -3.8560744709315475e+00  -3.7941586071204307e+00  -5.6577077290432678e+00  -4.6170721959267134e+00  -3.8442874237472684e+00  -3.7329290391739778e+00  -3.6817202348394105e+00  -3.6204973935869407e+00  -3.5687135701837005e+00  -3.5070673040536713e+00  -3.4550479103597671e+00  -3.3946171646978542e+00  -3.3408712072504163e+00  -3.2801936068307898e+00  -3.2258048785264792e+00  -3.1634116737627846e+00  -3.1098170652702160e+00  -3.0469264156262925e+00  -2.9930034398928056e+00  -2.9298608329294904e+00  -2.876903233560423