<?xml version="1.0"?>
<VTKFile type="UnstructuredGrid"  version="0.1"  >
<UnstructuredGrid>
<Piece  NumberOfPoints="2886" NumberOfCells="5412">
<Points>
<DataArray  type="Float64"  NumberOfComponents="3"  format="ascii">0 0.1 0  0.98 0.1 0  1 0.1 0  1 0 0  1.5 0 0  3 0 0  3 0.3 0  0 0.3 0  0.01975375321854102 0.1 0  0.03918897458218897 0.1 0  0.05831079002627837 0.1 0  0.07712425666319796 0.1 0  0.0956343475259058 0.1 0  0.1138459546796227 0.1 0  0.1317638870668193 0.1 0  0.1493928840275937 0.1 0  0.1667376092280033 0.1 0  0.1838026357802664 0.1 0  0.2005924801287244 0.1 0  0.2171115811543574 0.1 0  0.2333643037107681 0.1 0  0.2493549444060462 0.1 0  0.2650877293306821 0.1 0  0.2805668058011438 0.1 0  0.2957962848620976 0.1 0  0.3107801766802674 0.1 0  0.3255224447361181 0.1 0  0.3400269848175519 0.1 0  0.3542976327080778 0.1 0  0.3683381609158136 0.1 0  0.3821522744564845 0.1 0  0.3957436316838916 0.1 0  0.4091158196437086 0.1 0  0.4222723742184605 0.1 0  0.4352167733293057 0.1 0  0.4479524348643424 0.1 0  0.4604827295467524 0.1 0  0.4728109659990664 0.1 0  0.4849404035409129 0.1 0  0.4968742471455402 0.1 0  0.508615651843175 0.1 0  0.520167721130924 0.1 0  0.5315335063628542 0.1 0  0.5427160117228604 0.1 0  0.5537181940261912 0.1 0  0.564542961924507 0.1 0  0.575193173270606 0.1 0  0.5856716438765114 0.1 0  0.5959811458006617 0.1 0  0.6061243988680743 0.1 0  0.6161040893285659 0.1 0  0.6259228503970299 0.1 0  0.6355832809287655 0.1 0  0.6450879281079505 0.1 0  0.6544393102991295 0.1 0  0.663639896558931 0.1 0  0.6726921201956305 0.1 0  0.6815983691630338 0.1 0  0.6903610031396646 0.1 0  0.6989823343332418 0.1 0  0.7074646404270378 0.1 0  0.7158101645005117 0.1 0  0.7240211149852543 0.1 0  0.7320996585612525 0.1 0  0.7400479319727645 0.1 0  0.7478680336617921 0.1 0  0.755562036504958 0.1 0  0.7631319665092091 0.1 0  0.7705798279317605 0.1 0  0.777907588066146 0.1 0  0.7851171851013118 0.1 0  0.7922105226004981 0.1 0  0.7991894774550319 0.1 0  0.8060558928136696 0.1 0  0.812811583201334 0.1 0  0.8194583352091183 0.1 0  0.8259979035038147 0.1 0  0.8324320194413813 0.1 0  0.8387623808293405 0.1 0  0.8449906627004957 0.1 0  0.8511185094880469 0.1 0  0.8571475426008311 0.1 0  0.8630793533568246 0.1 0  0.8689155114558531 0.1 0  0.8746575581239063 0.1 0  0.8803070109173519 0.1 0  0.885865363938836 0.1 0  0.8913340851680313 0.1 0  0.8967146206523592 0.1 0  0.9020083930695622 0.1 0  0.9072167995950768 0.1 0  0.9123412183131177 0.1 0  0.9173830029719022 0.1 0  0.9223434865647732 0.1 0  0.9272239785872722 0.1 0  0.9320257720706087 0.1 0  0.9367501330378739 0.1 0  0.9413983102716995 0.1 0  0.9459715351562933 0.1 0  0.9504710127113115 0.1 0  0.9548979346500661 0.1 0  0.9592534708344373 0.1 0  0.9635387708980176 0.1 0  0.9677549682252325 0.1 0  0.971903177251235 0.1 0  0.9759844952956497 0.1 0  0.9840000000000086 0.1 0  0.987999999999974 0.1 0  0.9919999999999393 0.1 0  0.9959999999999913 0.1 0  1 0.09591793123533533 0  1 0.09133596463859224 0  1 0.08619288104391448 0  1 0.08041996484521211 0  1 0.07394008421771697 0  1 0.06666666567302955 0  1 0.05850252932209174 0  1 0.04933859630113544 0  1 0.03905242821848202 0  1 0.02750659386753798 0  1 0.01454683679239736 0  1.015625 0 0  1.03125 0 0  1.046875 0 0  1.0625 0 0  1.078125 0 0  1.09375 0 0  1.109375 0 0  1.125 0 0  1.140625 0 0  1.15625 0 0  1.171875 0 0  1.1875 0 0  1.203125 0 0  1.21875 0 0  1.234375 0 0  1.25 0 0  1.265625 0 0  1.28125 0 0  1.296875 0 0  1.3125 0 0  1.328125 0 0  1.34375 0 0  1.359375 0 0  1.375 0 0  1.390625 0 0  1.40625 0 0  1.421875 0 0  1.4375 0 0  1.453125 0 0  1.46875 0 0  1.484375 0 0  1.515920751924515 0 0  1.531989369316721 0 0  1.54820720925872 0 0  1.564575665560501 0 0  1.581096138674279 0 0  1.597770029901263 0 0  1.614598783332311 0 0  1.631583831055205 0 0  1.64872661129721 0 0  1.666028606716533 0 0  1.683491276608443 0 0  1.701116134125304 0 0  1.718904673324128 0 0  1.736858414799339 0 0  1.754978895814663 0 0  1.773267661782904 0 0  1.791726281103402 0 0  1.810356325314689 0 0  1.8291593848892 0 0  1.848137076690385 0 0  1.867291007717254 0 0  1.886622833871288 0 0  1.90613418642363 0 0  1.925826753299799 0 0  1.945702199101513 0 0  1.96576223584749 0 0  1.986008569283268 0 0  2.006442931928877 0 0  2.02706707547783 0 0  2.047882750887917 0 0  2.06889175187935 0 0  2.090095860038271 0 0  2.111496891648636 0 0  2.133096679109554 0 0  2.154897066851056 0 0  2.176899916687499 0 0  2.199107102752146 0 0  2.22152053937028 0 0  2.244142122958061 0 0  2.266973806444078 0 0  2.290017523268154 0 0  2.313275249499252 0 0  2.336748971745516 0 0  2.360440702338606 0 0  2.384352453384031 0 0  2.408486280477412 0 0  2.432844240041185 0 0  2.457428414757088 0 0  2.482240901796653 0 0  2.507283830121838 0 0  2.532559332080812 0 0  2.558069568787417 0 0  2.583816724966441 0 0  2.60980299606584 0 0  2.636030600971886 0 0  2.662501790984011 0 0  2.689218818279327 0 0  2.716183964547616 0 0  2.743399548861297 0 0  2.77086788244719 0 0  2.798591312896326 0 0  2.826572223178268 0 0  2.854812990138617 0 0  2.883316031690714 0 0  2.912083780657189 0 0  2.941118704633482 0 0  2.970423276998917 0 0  3 0.02999999999994495 0  3 0.05999999999987042 0  3 0.089999999999783 0  3 0.119999999999701 0  3 0.149999999999619 0  3 0.179999999999692 0  3 0.2099999999997737 0  3 0.2399999999998511 0  3 0.2699999999999185 0  2.970138294777171 0.3 0  2.940375666438236 0.3 0  2.910711782853056 0.3 0  2.881146331305122 0.3 0  2.851678975030285 0.3 0  2.822309388626621 0.3 0  2.793037250095074 0.3 0  2.76386223529133 0.3 0  2.734784017903872 0.3 0  2.705802289276642 0.3 0  2.676916713794697 0.3 0  2.648126987654635 0.3 0  2.619432780406184 0.3 0  2.590833779385199 0.3 0  2.562329669847737 0.3 0  2.533920134950189 0.3 0  2.505604855727852 0.3 0  2.477383539822502 0.3 0  2.449255847639465 0.3 0  2.421221492569094 0.3 0  2.393280152486815 0.3 0  2.36543151914496 0.3 0  2.337675285481809 0.3 0  2.310011142385583 0.3 0  2.282438797441587 0.3 0  2.254957931061538 0.3 0  2.227568248063605 0.3 0  2.200269436651085 0.3 0  2.173061204949961 0.3 0  2.145943251515011 0.3 0  2.118915272469994 0.3 0  2.091976978084957 0.3 0  2.065128060700849 0.3 0  2.038368218849433 0.3 0  2.01169717777258 0.3 0  1.985114624111908 0.3 0  1.958620267850966 0.3 0  1.93221382054972 0.3 0  1.905894991850698 0.3 0  1.879663489459713 0.3 0  1.853519019126419 0.3 0  1.827461291053897 0.3 0  1.801490031354372 0.3 0  1.775604937580312 0.3 0  1.74980572560258 0.3 0  1.724092118631866 0.3 0  1.698463829173586 0.3 0  1.672920575782554 0.3 0  1.647462076974085 0.3 0  1.622088043536933 0.3 0  1.5967981978949 0.3 0  1.571592267767068 0.3 0  1.546469970305736 0.3 0  1.521431023814044 0.3 0  1.496475156230927 0.3 0  1.471602093687753 0.3 0  1.446811560490646 0.3 0  1.422103279101731 0.3 0  1.397476971708191 0.3 0  1.37293238939876 0.3 0  1.348469231419202 0.3 0  1.324087248732772 0.3 0  1.299786165921677 0.3 0  1.275565710847046 0.3 0  1.251425617644257 0.3 0  1.227365618676339 0.3 0  1.203385446174014 0.3 0  1.179484853067473 0.3 0  1.155663548773374 0.3 0  1.131921292279077 0.3 0  1.108257802159295 0.3 0  1.084672829009693 0.3 0  1.061166115303374 0.3 0  1.037737392995421 0.3 0  1.01438640299116 0.3 0  0.991112899770314 0.3 0  0.9679166155523955 0.3 0  0.944797284182564 0.3 0  0.921754678526042 0.3 0  0.8987885143602501 0.3 0  0.8758985548820624 0.3 0  0.8530845484099929 0.3 0  0.8303462351786988 0.3 0  0.8076833651172373 0.3 0  0.7850956864865304 0.3 0  0.7625829601354557 0.3 0  0.7401449314598274 0.3 0  0.717781337993959 0.3 0  0.6954919649675473 0.3 0  0.6732765357561226 0.3 0  0.6511348120768439 0.3 0  0.6290665642016573 0.3 0  0.6070715355430467 0.3 0  0.5851494825775325 0.3 0  0.5633001690203812 0.3 0  0.5415233562273221 0.3 0  0.5198187909431873 0.3 0  0.4981862401387795 0.3 0  0.4766254686134248 0.3 0  0.4551362360485234 0.3 0  0.4337182975262159 0.3 0  0.4123714223228037 0.3 0  0.3910953802377493 0.3 0  0.3698899313205595 0.3 0  0.3487548463710963 0.3 0  0.3276898864081783 0.3 0  0.3066948129116018 0.3 0  0.2857694003037476 0.3 0  0.2649134227095047 0.3 0  0.2441266417321288 0.3 0  0.2234088223399122 0.3 0  0.2027597568977288 0.3 0  0.1821792020676698 0.3 0  0.1616669305402443 0.3 0  0.1412227158799362 0.3 0  0.12084633013886 0.3 0  0.1005375673448281 0.3 0  0.08029618164595353 0.3 0  0.06012194778526769 0.3 0  0.04001466495039718 0.3 0  0.01997408913631205 0.3 0  0 0.2800000000000553 0  0 0.2600000000001105 0  0 0.2400000000001658 0  0 0.2200000000002211 0  0 0.2000000000002764 0  0 0.1800000000002244 0  0 0.1600000000001691 0  0 0.140000000000115 0  0 0.1200000000000564 0  1.13346801534201 0.01255848438672509 0  1.003577645172735 0.09351054173913405 0  0.9777559943702486 0.1034978156913738 0  0.9524533750752109 0.1040889939962738 0  0.9296242411226409 0.1041520033606139 0  0.9046110503652111 0.104409422380137 0  0.8777709649694228 0.1053360318797398 0  0.8483859145648608 0.1061007868330701 0  0.8162363822948977 0.1052777104363292 0  0.7893110024210437 0.1060761643971561 0  0.7587949382612539 0.1067265405088633 0  0.7280603867732535 0.1069398153264939 0  0.6947001989413015 0.1075609887579097 0  0.6590363283767549 0.1076715322596598 0  0.6210028614493155 0.1072970410408442 0  1.1953125 0.01353164693413185 0  1.258193991486058 0.01269648635163345 0  1.3201967268638 0.01407907077719561 0  1.383538555392096 0.01434101079053473 0  1.445312500000001 0.01303671693628424 0  1.508925448095738 0.01398525724792267 0  0.9939176689634008 0.1034638089837981 0  1.120967497222226 0.2796788492172345 0  1.572835902117391 0.01424132418857359 0  1.637573277451887 0.01212536916586023 0  1.709730776795181 0.01466855431023635 0  1.005631976950563 0.07074019818158772 0  1.784944696816299 0.01454708406461822 0  0.5805605730631225 0.1101465090472147 0  1.855621181165637 0.01550931272897607 0  0.5366111276616774 0.1096761308243709 0  1.935200147913231 0.01760344159641829 0  1.214922267975168 0.2799787705802257 0  1.31178773425331 0.2792
[...]
<PointData  Scalars="pressure"> 
<DataArray  type="Float64"  Name="pressure"  format="ascii">1.5644686397169488e-01  -1.6590035201189693e-01  -2.1360145250204232e-01  -1.6028431124695638e-01  -3.8784942201792967e-02  0.0000000000000000e+00  0.0000000000000000e+00  1.5645454102092091e-01  1.5052074202587842e-01  1.4469010469626581e-01  1.3895338332392690e-01  1.3330905273034815e-01  1.2775559807557046e-01  1.2229153947757862e-01  1.1691544279758763e-01  1.1162583454886986e-01  1.0642131939770469e-01  1.0130050781691519e-01  9.6261991762969304e-02  9.1304420615234735e-02  8.6426479694818800e-02  8.1626801949377700e-02  7.6904087742902513e-02  7.2257124018567015e-02  6.7684505838272596e-02  6.3185040985292290e-02  5.8757484657674136e-02  5.4400529543953462e-02  5.0113011170540560e-02  4.5893799704043788e-02  4.1741532715668786e-02  3.7655130811455863e-02  3.3633295083099306e-02  2.9674926116181558e-02  2.5778978624417841e-02  2.1944170387539999e-02  1.8169312506957618e-02  1.4453354634969055e-02  1.0795158139005388e-02  7.1935175234262745e-03  3.6474381997798049e-03  1.5566886400117136e-04  -3.2828179244112419e-03  -6.6692133081736665e-03  -1.0004600378797735e-02  -1.3289653535862578e-02  -1.6526244468845996e-02  -1.9714977333139105e-02  -2.2856987028865579e-02  -2.5953579250658169e-02  -2.9005788141194040e-02  -3.2014045006647153e-02  -3.4980478464799160e-02  -3.7905562091161984e-02  -4.0790445430508138e-02  -4.3636292814768392e-02  -4.6444114987366690e-02  -4.9214987631372477e-02  -5.1950130076619590e-02  -5.4650496352415194e-02  -5.7317078651564754e-02  -5.9950856344026575e-02  -6.2553473875411728e-02  -6.5125305141022147e-02  -6.7667671144589256e-02  -7.0181236183249160e-02  -7.2668136823862944e-02  -7.5128784827301676e-02  -7.7563416719366979e-02  -7.9973865044455278e-02  -8.2361785365422976e-02  -8.4726827366292848e-02  -8.7071186214521687e-02  -8.9395602397626506e-02  -9.1700366286312188e-02  -9.3987159500198078e-02  -9.6256924107499919e-02  -9.8510640954831197e-02  -1.0075016144567364e-01  -1.0297558861032574e-01  -1.0518739273403956e-01  -1.0738631245955270e-01  -1.0957603824009379e-01  -1.1175560126889693e-01  -1.1392575156327706e-01  -1.1608852395818518e-01  -1.1824437118988515e-01  -1.2039434785641234e-01  -1.2253969901262463e-01  -1.2468250286173287e-01  -1.2682330878763642e-01  -1.2896245145755927e-01  -1.3110259011964182e-01  -1.3324480516794451e-01  -1.3539045201342509e-01  -1.3754120604831363e-01  -1.3969859563016676e-01  -1.4186466266572006e-01  -1.4404159213292239e-01  -1.4623188533256201e-01  -1.4843846479378697e-01  -1.5066322108468105e-01  -1.5291119621296317e-01  -1.5517870988747978e-01  -1.5757813037589397e-01  -1.5943337640954008e-01  -1.6378919520357255e-01  -1.6387866545592031e-01  -1.6838394477939861e-01  -1.6454113879976481e-01  -2.0177576136090847e-01  -1.8066109593107893e-01  -1.7412031387467247e-01  -1.6934493323865288e-01  -1.6611377758160273e-01  -1.6368586874994237e-01  -1.6186522715846577e-01  -1.6052935152656012e-01  -1.5972562320247211e-01  -1.5952660304846200e-01  -1.5993167575393477e-01  -1.6072575481885260e-01  -1.6109950003537893e-01  -1.6089092983595590e-01  -1.6021520489189658e-01  -1.5916262811694382e-01  -1.5777653658828908e-01  -1.5604141474946465e-01  -1.5394409302175738e-01  -1.5151358121728120e-01  -1.4876720532045276e-01  -1.4570884197614797e-01  -1.4235228257774954e-01  -1.3870873571085010e-01  -1.3479039053457714e-01  -1.3061796473726769e-01  -1.2620471552466381e-01  -1.2156340579899680e-01  -1.1671284601836159e-01  -1.1167245812915501e-01  -1.0645350125508111e-01  -1.0108642268939341e-01  -9.5590406782098084e-02  -8.9981888937818513e-02  -8.4292552272408172e-02  -7.8541262865224892e-02  -7.2758721929893272e-02  -6.6967616875724847e-02  -6.1191279166183887e-02  -5.5462038363254237e-02  -4.9801248459448111e-02  -4.4235319310538486e-02  -3.3375021916216517e-02  -2.8090920193362259e-02  -2.2942284852204956e-02  -1.7963304889962915e-02  -1.3180488537380911e-02  -8.5962297608095702e-03  -4.2360960105587240e-03  -1.0511468688282264e-04  3.7479583474531613e-03  7.3485322002309903e-03  1.0697404172310515e-02  1.3774086216544985e-02  1.6581685531368909e-02  1.9128356100689810e-02  2.1419029826332141e-02  2.3459636588302048e-02  2.5266560148058271e-02  2.6841239443112126e-02  2.8198472124843922e-02  2.9369664340417174e-02  3.0343881368560047e-02  3.1151674427874677e-02  3.1806985873263895e-02  3.2318002935593566e-02  3.2706367602782935e-02  3.2976520483860794e-02  3.3159201451700267e-02  3.3245279728496883e-02  3.3255310877443760e-02  3.3194070195040087e-02  3.3069099614530452e-02  3.2889453166814409e-02  3.2663961694976915e-02  3.2396395979954598e-02  3.2087296071725308e-02  3.1743356816652905e-02  3.1365001574917561e-02  3.0954583543939703e-02  3.0512873009376634e-02  3.0039994332049017e-02  2.9536041298998058e-02  2.9000666620350248e-02  2.8432422192741818e-02  2.7831362824033788e-02  2.7194825739985176e-02  2.6521352770187020e-02  2.5811854848049549e-02  2.5061474600913489e-02  2.4268143679162558e-02  2.3436193555721869e-02  2.2556007504472401e-02  2.1634669725290569e-02  2.0661661487278438e-02  1.9645830363357430e-02  1.8579423873536664e-02  1.7458642133260406e-02  1.6294042131187372e-02  1.5071473762510657e-02  1.3802307684465262e-02  1.2480504835148195e-02  1.1105102879150272e-02  9.6761518687065989e-03  8.1958395223756045e-03  6.6673268490268865e-03  5.0813339417317268e-03  3.4554494729957756e-03  1.7736916284746883e-03  0.0000000000000000e+00  0.0000000000000000e+00  0.0000000000000000e+00  0.0000000000000000e+00  0.0000000000000000e+00  0.0000000000000000e+00  0.0000000000000000e+00  0.0000000000000000e+00  0.0000000000000000e+00  1.9299220767257552e-03  3.7330752369520068e-03  5.5087159963091983e-03  7.2315067052974363e-03  8.9052242268119735e-03  1.0528676694524414e-02  1.2100992870766344e-02  1.3620496340096783e-02  1.5084377152186442e-02  1.6490480507247513e-02  1.7834850387029463e-02  1.9115059748461945e-02  2.0326085263324179e-02  2.1464976490516940e-02  2.2526920556660925e-02  2.3505406471565109e-02  2.4400014390162587e-02  2.5199701454299846e-02  2.5899810675722171e-02  2.6494187154850836e-02  2.6975995848492321e-02  2.7338525425313048e-02  2.7576156842641340e-02  2.7678171614614566e-02  2.7642572043689945e-02  2.7457991087698332e-02  2.7121940764367192e-02  2.6623085684397012e-02  2.5956277098491388e-02  2.5118753101685889e-02  2.4099861155569745e-02  2.2894051090300585e-02  2.1516046329039144e-02  1.9951526856056813e-02  1.8174701342385281e-02  1.6225864073178661e-02  1.4081125763109251e-02  1.1742092674395761e-02  9.2098611497651237e-03  6.4922547574993231e-03  3.5804534648112103e-03  4.8801533089286829e-04  -2.7930040980388305e-03  -6.2521365259609113e-03  -9.9002152749485157e-03  -1.3722350753962248e-02  -1.7719103442631955e-02  -2.1882425059740196e-02  -2.6214850577542474e-02  -3.0703156163942182e-02  -3.5344966435960884e-02  -4.0129102026221344e-02  -4.5043114794304798e-02  -5.0078576628914823e-02  -5.5220084586894300e-02  -6.0445443873284502e-02  -6.5698954762692316e-02  -7.1022122106543892e-02  -7.6335026809610934e-02  -8.1580592647778311e-02  -8.6761254209715352e-02  -9.1808061291407950e-02  -9.6702282636308687e-02  -1.0134018255884639e-01  -1.0571631495377522e-01  -1.0972307675317255e-01  -1.1334881596443756e-01  -1.1648525671447822e-01  -1.1913608948624471e-01  -1.2117015522608258e-01  -1.2260135846361694e-01  -1.2335616012791738e-01  -1.2330232267874343e-01  -1.2260702291938005e-01  -1.2112728280512540e-01  -1.1886471012780456e-01  -1.1593124635885947e-01  -1.1234497541468828e-01  -1.0823152444368725e-01  -1.0366002434416463e-01  -9.8628156753735818e-02  -9.3277617905493590e-02  -8.7649065854740360e-02  -8.1840324208168919e-02  -7.5855931794286846e-02  -6.9725588616120049e-02  -6.3504914428267598e-02  -5.7207869780645994e-02  -5.0846269047196392e-02  -4.4445266597163323e-02  -3.8010327312269929e-02  -3.1560985255606036e-02  -2.5100377801119549e-02  -1.8631268525515152e-02  -1.2165852571450260e-02  -5.7054630832538205e-03  7.4859299057477495e-04  7.1926048222100900e-03  1.3623268691864667e-02  2.0039340926270018e-02  2.6440263907515509e-02  3.2824401565092663e-02  3.9191547997486295e-02  4.5539985268823614e-02  5.1870085726553591e-02  5.8181073167795139e-02  6.4472654339497226e-02  7.0744722931922022e-02  7.6996946998447863e-02  8.3229268495216807e-02  8.9441646083128656e-02  9.5633973377213452e-02  1.0180621783136412e-01  1.0795837553809406e-01  1.1409045433617891e-01  1.2020242730302373e-01  1.2629436580114950e-01  1.3236628732394992e-01  1.3841821841153601e-01  1.4445021303269026e-01  1.5046230377820993e-01  1.5645451136331015e-01  1.5645419227814988e-01  1.5645341299562832e-01  1.5645218970931249e-01  1.5645070381583123e-01  1.5644921638909959e-01  1.5644799054600997e-01  1.5644720607080131e-01  1.5644688813192159e-01  -1.5236427981925565e-01  -1.8500991643397047e-01  -1.6138927887750396e-01  -1.4737972616286699e-01  -1.3657646788597888e-01  -1.2583604117049429e-01  -1.1519079159874407e-01  -1.0425986758391464e-01  -9.2916596502464671e-02  -8.3792090077418918e-02  -7.3743706953999372e-02  -6.3858104965467358e-02  -5.3323835374134362e-02  -4.2222549470613477e-02  -3.0513224593537808e-02  -1.4038935179301981e-01  -1.2376109996303618e-01  -1.0391466342641117e-01  -8.1360488711219092e-02  -5.8603434075960824e-02  -3.6115504615138960e-02  -1.7440285893287358e-01  -1.2128737722156128e-01  -1.5966079532741859e-02  8.8900747285674045e-04  1.4766622329859749e-02  -1.6558085494834660e-01  2.4289764303123376e-02  -1.8165430383126617e-02  2.9485622193641193e-02  -4.8240419573200854e-03  3.2295744070165437e-02  -1.1097175494147307e-01  -9.3624780195490934e-02  3.3128980241486090e-02  -7.3248970130888380e-02  8.9944547982124621e-03  -4.7165541888686803e-02  3.2695128503491287e-02  2.3860020038205268e-02  -1.5798338910204549e-01  3.1487380664608197e-02  -2.3825243445723301e-02  -1.2249326174293064e-01  3.9266037436552818e-02  2.9740874054970712e-02  -1.1023931762161178e-03  5.6765915160951891e-02  7.7108680439246843e-03  2.7450160206248242e-02  1.5245513743486769e-02  7.4058172783584578e-02  -1.1709029112797747e-01  2.4680708904545406e-02  2.0717060352290064e-02  -1.0582693824450548e-01  2.4610020005860919e-02  2.1129665962690544e-02  -9.0453986944546969e-02  9.4259085710234836e-02  1.0827646962531227e-01  -1.1708932473140185e-02  1.7989180355971711e-02  1.4263176720716447e-02  2.6797529587127864e-02  -7.2993090547581865e-02  2.7519013686356533e-02  -1.5402484115362475e-01  -4.8085277417517246e-02  2.6634368360569011e-02  1.2572844912124737e-01  -2.8368442172705264e-02  1.0362448300327055e-02  2.3885738373907787e-02  -8.8147573922361788e-03  1.6998482239917834e-02  2.0827688378741351e-02  4.8705711608805227e-02  1.7104712881509911e-02  6.7664994476523729e-02  8.6441462879333075e-02  1.2817568077730058e-02  1.1804076602512704e-01  1.6174567665838593e-03  1.5087078830050107e-01  -1.6072415501760848e-01  8.1662065945355706e-03  5.7517889955100241e-03  1.3584324773522619e-01  -1.7210937642823354e-01  -1.6005906502766243e-01  -1.1719825212093760e-01  -6.0262757181569079e-02  3.4771866906588671e-03  2.9300334009951648e-02  1.3618275231546514e-01  -3.7859000457986333e-02  -6.2360286716186861e-02  -8.3545907324198407e-02  -1.0286728826130408e-01  8.4321115438370772e-02  2.7448919678022678e-02  6.5146921852824044e-02  9.8682664058994701e-02  2.5462219183269769e-02  2.2990874064966259e-02  4.7443305489565685e-02  2.6059984297947415e-02  2.8676674799077689e-02  3.1903291992681868e-02  3.0678326935560652e-02  3.2170419330315538e-02  3.3042454622069867e-02  3.2932399281526775e-02  -2.5888983057903627e-02  1.6309449101344676e-02  3.1190911111561973e-02  2.7218924113593081e-02  1.9181104381532617e-03  2.0140634938901884e-02  8.6435289628334754e-03  -6.6625290329181876e-03  1.3461052462364884e-03  -1.2011792956904709e-02  -2.3958186610552181e-02  1.5121042218801670e-01  -3.6133859184976740e-02  -4.7842073720079356e-02  -5.8650910288144550e-02  -6.9039797711252474e-02  -7.8846423474608310e-02  -8.8161458795501815e-02  -1.4685268105395954e-01  -9.9678216599223268e-02  -1.1072338938912327e-01  -1.2154584522892541e-01  -1.3264335171114722e-01  -1.3234279160996212e-01  -9.3129025218704725e-02  -1.1373366640314386e-01  -7.0951007748265460e-02  -4.7338192455418530e-02  -1.4307953728822090e-01  -1.6492790410268052e-01  1.6977597092125824e-03  1.5071413018135682e-01  4.5505018718793033e-03  -1.6049533483133221e-01  1.5146225293543827e-01  1.3717798250885620e-03  1.4735852720093573e-01  -1.6046083985322554e-01  -1.6012093512673081e-01  -1.5965712746422775e-01  -1.6016181052974410e-01  -1.5968055236356249e-01  -1.6051361704378034e-01  -1.5985063301225633e-01  -1.6096785691804499e-01  -1.6013408907693713e-01  -1.6128773707469099e-01  -1.6033510736307474e-01  -1.6121070342116633e-01  -1.6006204198244350e-01  -1.6057504228336952e-01  -1.5928760928019253e-01  -1.5948970649623717e-01  -1.5802426454771729e-01  -1.5801853848888525e-01  -1.5638064288913542e-01  -1.5600172199606563e-01  -1.5404877692382277e-01  -1.5770787601007802e-01  -1.5453297364402116e-01  -1.5180921022576660e-01  -1.5503877494990020e-01  -1.5703948695280120e-01  -1.5207112206721471e-01  -1.4919741041074480e-01  -1.4938443156502032e-01  -1.4614157905891384e-01  -1.4621329354060666e-01  -1.4264799797302483e-01  -1.4263641324713530e-01  -1.3899431691133105e-01  -1.3865028916402597e-01  -1.3427794569627827e-01  -1.3403826058279278e-01  -1.2984123750462745e-01  -1.2918057018671378e-01  -1.2482377081089938e-01  -1.2392218866423341e-01  -1.1948067048817052e-01  -1.1835092310256934e-01  -1.1387438498877542e-01  -1.1247625878971003e-01  -1.0803585382135547e-01  -1.0633335268503055e-01  -1.0198297335647193e-01  -9.9988948321997145e-02  -9.5795397040131069e-02  -9.3461100472116809e-02  -8.9513421059027792e-02  -8.6712484665010067e-02  -1.5331651962079237e-01  -1.5518204826097690e-01  -8.3157775230736267e-02  -7.9930057725458650e-02  -7.6803889569398376e-02  -7.3579643494636721e-02  -7.0556519437594042e-02  -6.6976597373022875e-02  -6.4415918211669213e-02  -6.0507258963900377e-02  -1.4813109888270318e-01  -5.8494834958899358e-02  -5.4163072195812206e-02  -5.2518429570187847e-02  -4.7965163726347917e-02  -4.6925818317671425e-02  -4.2054220040390895e-02  -1.5066342904010924e-01  -1.5273423945333892e-01  -1.6171226866349545e-01  -4.1502879452107753e-02  -3.6350501203704914e-02  -3.6362530639295725e-02  -3.0939358241581123e-02  -3.1485908142966305e-02  -2.5849795624422543e-02  -1.5843922277465744e-01  -2.6889694144553600e-02  -2.1049711435408246e-02  -1.3833707700612369e-01  -2.2558692259710241e-02  -1.6583792099966469e-02  -1.8521934119163645e-02  -1.2442692294165008e-02  -1.4694782021412063e-02  -8.6158834837761974e-03  -1.5865026495476639e-01  -1.2476524769436748e-01  -1.1203234812974208e-02  -5.1022937990567035e-03  -1.4710549800135678e-01  -1.4848435015974656e-01  -1.4539558027306926e-01  -1.0876399819685921e-01  -7.9012135868688754e-03  -1.7406075604158833e-03  -4.9411474828317554e-03  1.2691310186150055e-03  -2.1283981007334286e-03  3.8676408622050776e-03  -3.7024116282187082e-02  1.1739028809841972e-03  -2.0266148425048224e-02  -5.6303505749543070e-02  4.7642473391819513e-04  6.2473633815442473e-03  9.6462263757959299e-03  1.1861595649648985e-02  8.4736563697605689e-03  1.3856878702949169e-02  1.0574246975344787e-02  1.5717690725830246e-02  1.2468056004123802e-02  1.7332336938113323e-02  1.4201802815703485e-02  1.8821816103594725e-02  1.5834931666078279e-02  2.0127882374668879e-02  1.7248971018347548e-02  2.1322117113332231e-02  1.8665120391525260e-02  2.2511979944628356e-02  1.9928363235809050e-02  2.3485617251760304e-02  2.1119735858471985e-02  2.4329633995509910e-02  2.2070015145771813e-02  2.5098724597187698e-02  -7.6434000339794722e-02  -9.1640583017650004e-02  2.3043779443487310e-02  2.5745390535647041e-02  2.3966503572157981e-02  2.6361921178065770e-02  -1.4544932422556833e-01  -1.1028772592929441e-01  2.4786568499768121e-02  2.6867689766993798e-02  -1.2761219961258788e-01  -7.4249134462325131e-02  -1.4263716464093695e-01  -1.4361916083801723e-01  -1.5027582959073219e-01  -1.4428436109086659e-01  -1.4993175620449781e-01  -1.4424993494726138e-01  -1.5029511609756449e-01  -1.4368653678913618e-01  -1.4800361157950584e-01  -1.4208452731913757e-01  -1.4653025583419985e-01  -1.4004357912452992e-01  -1.4295011114607203e-01  -1.3728786174064272e-01  -1.3947228577327292e-01  -1.3429006146886710e-01  -1.3580224975547137e-01  -1.3097236258969436e-01  -1.3202479774724010e-01  -1.2753120370677948e-01  -1.2817562893254375e-01  -1.2396480169585834e-01  -1.2432216582629736e-01  -1.2035509997800009e-01  -1.2046694174884517e-01  -1.1675765405878680e-01  -1.1629432624912096e-01  -1.1286315021498391e-01  -1.1296328595961705e-01  -1.0935509680222949e-01  -1.0916677119994292e-01  -1.0574429802649786e-01  -1.0556712127842278e-01  -1.0217571110108870e-01  -1.0172555989057845e-01  -9.8540817785429696e-02  -1.3188786710061848e-01  -1.0897720794665619e-01  -1.2288492621194662e-01  -9.8017756526469796e-02  -9.4826915138885817e-02  -9.5105384922090752e-02  -9.1571328672374108e-02  -9.1072254582396123e-02  -8.7956390292695044e-02  -8.7272170197935220e-02  -8.4283212892825324e-02  -8.3487223199392238e-02  -8.0550078417286369e-02  -8.7718578556007398e-02  -1.5517994178904257e-01  -1.4845699677788080e-01  -7.9763392689851761e-02  -7.6761247536967628e-02  -7.7503174084039131e-02  -7.3723275219222228e-02  -7.2948798724505728e-02  -6.9963382433445354e-02  -6.9079273491326448e-02  -6.6176759744004082e-02  -1.4064862038825968e-01  -7.0474841027788546e-02  -6.5233070534460216e-02  -6.2404422257213814e-02  -1.3231362093453700e-01  -6.1501204901744218e-02  -5.8575411433381554e-02  -5.9750046615708166e-02  -5.5602009895593538e-02  -5.4637602585094432e-02  -5.1554538970064692e-02  -5.2475935253527416e-02  -4.8432475437151186e-02  -4.7524566203477489e-02  -4.4397092084990653e-02  -4.3478837370450968e-02  -4.0267954166964319e-02  -4.1210824009896889e-02  -3.7086270869495432e-02  -3.6112355131279167e-02  -3.2956637528502392e-02  -3.2020189497685918e-02  -2.8844244305083130e-02  -1.3902902015869933e-01  -1.0890425273364661e-01  -1.2403720459940683e-01  -2.8000735954763222e-02  -2.4763713321331673e-02  -2.5619118481868902e-02  -2.1385959378476288e-02  -2.0534876092645024e-02  -1.7158532233066005e-02  -2.2240090050108394e-02  2.5436393075580432e-02  2.7288269012027255e-02  2.6026688878709226e-02  2.7641692094786209e-02  2.6551663754126757e-02  2.7924372253993971e-02  -9.0415470591252184e-02  -4.6613022240257693e-02  -1.6153973652638989e-01  -1.6274712229591426e-02  -1.2966095410189405e-02  -1.0107799686162522e-01  2.3197491959270001e-02  2.7158300049433079e-02  1.4731957317150600e-02  2.6985513262034910e-02  2.8127031642039533e-02  2.9153051963517970e-02  2.9137195850579056e-02  2.8255742281868473e-02  2.9069296137170138e-02  2.8317194005105309e-02  2.8942855565283643e-02  2.8296791716125386e-02  2.8750539907975440e-02  2.8204227760541479e-02  2.8500121629421633e-02  2.8028385064566255e-02  2.8178569012496841e-02  2.7776920402928350e-02  2.7797679564214504e-02  2.7452625591537397e-02  2.7355560665558911e-02  2.7058999420040451e-02  2.6854243449853130e-02  2.6585231750196794e-02  2.6278875168792713e-02  2.6030361027503793e-02  2.5652098188238756e-02  2.5399128727321616e-02  2.4938890659104332e-02  2.4707635790159155e-02  2.4185388712247534e-02  2.3921503143245707e-02  2.3346385284096383e-02  2.3082370488721068e-02  2.2460215800871288e-02  2.8842411266443258e-02  -3.8096407069802198e-02  -7.2099582730290546e-02  -1.1959318977522136e-02  -8.6640381716574007e-03  -9.6614007814346693e-03  -5.2084697107653687e-03  -6.2500750511554860e-03  -1.6941844783249702e-03  -7.7207859850464975e-04  2.7615657115004138e-03  3.8040284340049345e-03  7.3097592712036826e-03  6.3646714073817426e-03  1.0900742807699310e-02  1.1704232915508284e-02  1.5401825793173844e-02  1.6191815940156291e-0