<?xml version="1.0"?>
<VTKFile type="UnstructuredGrid"  version="0.1"  >
<UnstructuredGrid>
<Piece  NumberOfPoints="2886" NumberOfCells="5412">
<Points>
<DataArray  type="Float64"  NumberOfComponents="3"  format="ascii">0 0.1 0  0.98 0.1 0  1 0.1 0  1 0 0  1.5 0 0  3 0 0  3 0.3 0  0 0.3 0  0.01975375321854102 0.1 0  0.03918897458218897 0.1 0  0.05831079002627837 0.1 0  0.07712425666319796 0.1 0  0.0956343475259058 0.1 0  0.1138459546796227 0.1 0  0.1317638870668193 0.1 0  0.1493928840275937 0.1 0  0.1667376092280033 0.1 0  0.1838026357802664 0.1 0  0.2005924801287244 0.1 0  0.2171115811543574 0.1 0  0.2333643037107681 0.1 0  0.2493549444060462 0.1 0  0.2650877293306821 0.1 0  0.2805668058011438 0.1 0  0.2957962848620976 0.1 0  0.3107801766802674 0.1 0  0.3255224447361181 0.1 0  0.3400269848175519 0.1 0  0.3542976327080778 0.1 0  0.3683381609158136 0.1 0  0.3821522744564845 0.1 0  0.3957436316838916 0.1 0  0.4091158196437086 0.1 0  0.4222723742184605 0.1 0  0.4352167733293057 0.1 0  0.4479524348643424 0.1 0  0.4604827295467524 0.1 0  0.4728109659990664 0.1 0  0.4849404035409129 0.1 0  0.4968742471455402 0.1 0  0.508615651843175 0.1 0  0.520167721130924 0.1 0  0.5315335063628542 0.1 0  0.5427160117228604 0.1 0  0.5537181940261912 0.1 0  0.564542961924507 0.1 0  0.575193173270606 0.1 0  0.5856716438765114 0.1 0  0.5959811458006617 0.1 0  0.6061243988680743 0.1 0  0.6161040893285659 0.1 0  0.6259228503970299 0.1 0  0.6355832809287655 0.1 0  0.6450879281079505 0.1 0  0.6544393102991295 0.1 0  0.663639896558931 0.1 0  0.6726921201956305 0.1 0  0.6815983691630338 0.1 0  0.6903610031396646 0.1 0  0.6989823343332418 0.1 0  0.7074646404270378 0.1 0  0.7158101645005117 0.1 0  0.7240211149852543 0.1 0  0.7320996585612525 0.1 0  0.7400479319727645 0.1 0  0.7478680336617921 0.1 0  0.755562036504958 0.1 0  0.7631319665092091 0.1 0  0.7705798279317605 0.1 0  0.777907588066146 0.1 0  0.7851171851013118 0.1 0  0.7922105226004981 0.1 0  0.7991894774550319 0.1 0  0.8060558928136696 0.1 0  0.812811583201334 0.1 0  0.8194583352091183 0.1 0  0.8259979035038147 0.1 0  0.8324320194413813 0.1 0  0.8387623808293405 0.1 0  0.8449906627004957 0.1 0  0.8511185094880469 0.1 0  0.8571475426008311 0.1 0  0.8630793533568246 0.1 0  0.8689155114558531 0.1 0  0.8746575581239063 0.1 0  0.8803070109173519 0.1 0  0.885865363938836 0.1 0  0.8913340851680313 0.1 0  0.8967146206523592 0.1 0  0.9020083930695622 0.1 0  0.9072167995950768 0.1 0  0.9123412183131177 0.1 0  0.9173830029719022 0.1 0  0.9223434865647732 0.1 0  0.9272239785872722 0.1 0  0.9320257720706087 0.1 0  0.9367501330378739 0.1 0  0.9413983102716995 0.1 0  0.9459715351562933 0.1 0  0.9504710127113115 0.1 0  0.9548979346500661 0.1 0  0.9592534708344373 0.1 0  0.9635387708980176 0.1 0  0.9677549682252325 0.1 0  0.971903177251235 0.1 0  0.9759844952956497 0.1 0  0.9840000000000086 0.1 0  0.987999999999974 0.1 0  0.9919999999999393 0.1 0  0.9959999999999913 0.1 0  1 0.09591793123533533 0  1 0.09133596463859224 0  1 0.08619288104391448 0  1 0.08041996484521211 0  1 0.07394008421771697 0  1 0.06666666567302955 0  1 0.05850252932209174 0  1 0.04933859630113544 0  1 0.03905242821848202 0  1 0.02750659386753798 0  1 0.01454683679239736 0  1.015625 0 0  1.03125 0 0  1.046875 0 0  1.0625 0 0  1.078125 0 0  1.09375 0 0  1.109375 0 0  1.125 0 0  1.140625 0 0  1.15625 0 0  1.171875 0 0  1.1875 0 0  1.203125 0 0  1.21875 0 0  1.234375 0 0  1.25 0 0  1.265625 0 0  1.28125 0 0  1.296875 0 0  1.3125 0 0  1.328125 0 0  1.34375 0 0  1.359375 0 0  1.375 0 0  1.390625 0 0  1.40625 0 0  1.421875 0 0  1.4375 0 0  1.453125 0 0  1.46875 0 0  1.484375 0 0  1.515920751924515 0 0  1.531989369316721 0 0  1.54820720925872 0 0  1.564575665560501 0 0  1.581096138674279 0 0  1.597770029901263 0 0  1.614598783332311 0 0  1.631583831055205 0 0  1.64872661129721 0 0  1.666028606716533 0 0  1.683491276608443 0 0  1.701116134125304 0 0  1.718904673324128 0 0  1.736858414799339 0 0  1.754978895814663 0 0  1.773267661782904 0 0  1.791726281103402 0 0  1.810356325314689 0 0  1.8291593848892 0 0  1.848137076690385 0 0  1.867291007717254 0 0  1.886622833871288 0 0  1.90613418642363 0 0  1.925826753299799 0 0  1.945702199101513 0 0  1.96576223584749 0 0  1.986008569283268 0 0  2.006442931928877 0 0  2.02706707547783 0 0  2.047882750887917 0 0  2.06889175187935 0 0  2.090095860038271 0 0  2.111496891648636 0 0  2.133096679109554 0 0  2.154897066851056 0 0  2.176899916687499 0 0  2.199107102752146 0 0  2.22152053937028 0 0  2.244142122958061 0 0  2.266973806444078 0 0  2.290017523268154 0 0  2.313275249499252 0 0  2.336748971745516 0 0  2.360440702338606 0 0  2.384352453384031 0 0  2.408486280477412 0 0  2.432844240041185 0 0  2.457428414757088 0 0  2.482240901796653 0 0  2.507283830121838 0 0  2.532559332080812 0 0  2.558069568787417 0 0  2.583816724966441 0 0  2.60980299606584 0 0  2.636030600971886 0 0  2.662501790984011 0 0  2.689218818279327 0 0  2.716183964547616 0 0  2.743399548861297 0 0  2.77086788244719 0 0  2.798591312896326 0 0  2.826572223178268 0 0  2.854812990138617 0 0  2.883316031690714 0 0  2.912083780657189 0 0  2.941118704633482 0 0  2.970423276998917 0 0  3 0.02999999999994495 0  3 0.05999999999987042 0  3 0.089999999999783 0  3 0.119999999999701 0  3 0.149999999999619 0  3 0.179999999999692 0  3 0.2099999999997737 0  3 0.2399999999998511 0  3 0.2699999999999185 0  2.970138294777171 0.3 0  2.940375666438236 0.3 0  2.910711782853056 0.3 0  2.881146331305122 0.3 0  2.851678975030285 0.3 0  2.822309388626621 0.3 0  2.793037250095074 0.3 0  2.76386223529133 0.3 0  2.734784017903872 0.3 0  2.705802289276642 0.3 0  2.676916713794697 0.3 0  2.648126987654635 0.3 0  2.619432780406184 0.3 0  2.590833779385199 0.3 0  2.562329669847737 0.3 0  2.533920134950189 0.3 0  2.505604855727852 0.3 0  2.477383539822502 0.3 0  2.449255847639465 0.3 0  2.421221492569094 0.3 0  2.393280152486815 0.3 0  2.36543151914496 0.3 0  2.337675285481809 0.3 0  2.310011142385583 0.3 0  2.282438797441587 0.3 0  2.254957931061538 0.3 0  2.227568248063605 0.3 0  2.200269436651085 0.3 0  2.173061204949961 0.3 0  2.145943251515011 0.3 0  2.118915272469994 0.3 0  2.091976978084957 0.3 0  2.065128060700849 0.3 0  2.038368218849433 0.3 0  2.01169717777258 0.3 0  1.985114624111908 0.3 0  1.958620267850966 0.3 0  1.93221382054972 0.3 0  1.905894991850698 0.3 0  1.879663489459713 0.3 0  1.853519019126419 0.3 0  1.827461291053897 0.3 0  1.801490031354372 0.3 0  1.775604937580312 0.3 0  1.74980572560258 0.3 0  1.724092118631866 0.3 0  1.698463829173586 0.3 0  1.672920575782554 0.3 0  1.647462076974085 0.3 0  1.622088043536933 0.3 0  1.5967981978949 0.3 0  1.571592267767068 0.3 0  1.546469970305736 0.3 0  1.521431023814044 0.3 0  1.496475156230927 0.3 0  1.471602093687753 0.3 0  1.446811560490646 0.3 0  1.422103279101731 0.3 0  1.397476971708191 0.3 0  1.37293238939876 0.3 0  1.348469231419202 0.3 0  1.324087248732772 0.3 0  1.299786165921677 0.3 0  1.275565710847046 0.3 0  1.251425617644257 0.3 0  1.227365618676339 0.3 0  1.203385446174014 0.3 0  1.179484853067473 0.3 0  1.155663548773374 0.3 0  1.131921292279077 0.3 0  1.108257802159295 0.3 0  1.084672829009693 0.3 0  1.061166115303374 0.3 0  1.037737392995421 0.3 0  1.01438640299116 0.3 0  0.991112899770314 0.3 0  0.9679166155523955 0.3 0  0.944797284182564 0.3 0  0.921754678526042 0.3 0  0.8987885143602501 0.3 0  0.8758985548820624 0.3 0  0.8530845484099929 0.3 0  0.8303462351786988 0.3 0  0.8076833651172373 0.3 0  0.7850956864865304 0.3 0  0.7625829601354557 0.3 0  0.7401449314598274 0.3 0  0.717781337993959 0.3 0  0.6954919649675473 0.3 0  0.6732765357561226 0.3 0  0.6511348120768439 0.3 0  0.6290665642016573 0.3 0  0.6070715355430467 0.3 0  0.5851494825775325 0.3 0  0.5633001690203812 0.3 0  0.5415233562273221 0.3 0  0.5198187909431873 0.3 0  0.4981862401387795 0.3 0  0.4766254686134248 0.3 0  0.4551362360485234 0.3 0  0.4337182975262159 0.3 0  0.4123714223228037 0.3 0  0.3910953802377493 0.3 0  0.3698899313205595 0.3 0  0.3487548463710963 0.3 0  0.3276898864081783 0.3 0  0.3066948129116018 0.3 0  0.2857694003037476 0.3 0  0.2649134227095047 0.3 0  0.2441266417321288 0.3 0  0.2234088223399122 0.3 0  0.2027597568977288 0.3 0  0.1821792020676698 0.3 0  0.1616669305402443 0.3 0  0.1412227158799362 0.3 0  0.12084633013886 0.3 0  0.1005375673448281 0.3 0  0.08029618164595353 0.3 0  0.06012194778526769 0.3 0  0.04001466495039718 0.3 0  0.01997408913631205 0.3 0  0 0.2800000000000553 0  0 0.2600000000001105 0  0 0.2400000000001658 0  0 0.2200000000002211 0  0 0.2000000000002764 0  0 0.1800000000002244 0  0 0.1600000000001691 0  0 0.140000000000115 0  0 0.1200000000000564 0  1.13346801534201 0.01255848438672509 0  1.003577645172735 0.09351054173913405 0  0.9777559943702486 0.1034978156913738 0  0.9524533750752109 0.1040889939962738 0  0.9296242411226409 0.1041520033606139 0  0.9046110503652111 0.104409422380137 0  0.8777709649694228 0.1053360318797398 0  0.8483859145648608 0.1061007868330701 0  0.8162363822948977 0.1052777104363292 0  0.7893110024210437 0.1060761643971561 0  0.7587949382612539 0.1067265405088633 0  0.7280603867732535 0.1069398153264939 0  0.6947001989413015 0.1075609887579097 0  0.6590363283767549 0.1076715322596598 0  0.6210028614493155 0.1072970410408442 0  1.1953125 0.01353164693413185 0  1.258193991486058 0.01269648635163345 0  1.3201967268638 0.01407907077719561 0  1.383538555392096 0.01434101079053473 0  1.445312500000001 0.01303671693628424 0  1.508925448095738 0.01398525724792267 0  0.9939176689634008 0.1034638089837981 0  1.120967497222226 0.2796788492172345 0  1.572835902117391 0.01424132418857359 0  1.637573277451887 0.01212536916586023 0  1.709730776795181 0.01466855431023635 0  1.005631976950563 0.07074019818158772 0  1.784944696816299 0.01454708406461822 0  0.5805605730631225 0.1101465090472147 0  1.855621181165637 0.01550931272897607 0  0.5366111276616774 0.1096761308243709 0  1.935200147913231 0.01760344159641829 0  1.214922267975168 0.2799787705802257 0  1.31178773425331 0.2792
[...]
<PointData  Scalars="pressure"> 
<DataArray  type="Float64"  Name="pressure"  format="ascii">1.5864018783176487e-01  -1.6545612903843682e-01  -2.1628548501729444e-01  -1.6167079659915312e-01  -4.1191252178564570e-02  0.0000000000000000e+00  0.0000000000000000e+00  1.5864726814827257e-01  1.5271406555888370e-01  1.4688343365270731e-01  1.4114672582105359e-01  1.3550241745440719e-01  1.2994899548061989e-01  1.2448498087200821e-01  1.1910893886239449e-01  1.1381939983948343e-01  1.0861496816126789e-01  1.0349425566125325e-01  9.8455858135477609e-02  9.3498426461095380e-02  8.8620646324717306e-02  8.3821156436627908e-02  7.9098659442848093e-02  7.4451940118718307e-02  6.9879606136836941e-02  6.5380464476275088e-02  6.0953274415679062e-02  5.6596738883332907e-02  5.2309694138976855e-02  4.8091010680874013e-02  4.3939344091383101e-02  3.9853613834254738e-02  3.5832537353407079e-02  3.1875017350815896e-02  2.7980009746750353e-02  2.4146250231423028e-02  2.0372563168322762e-02  1.6657902318667973e-02  1.3001140726927643e-02  9.4010907400948543e-03  5.8567607505968303e-03  2.3669232200598535e-03  -1.0694410878843259e-03  -4.4535028133058426e-03  -7.7863317470209864e-03  -1.1068614031305034e-02  -1.4302149479217539e-02  -1.7487561666936487e-02  -2.0625958707715258e-02  -2.3718615518899859e-02  -2.6766549467457705e-02  -2.9770212632244629e-02  -3.2731641713963276e-02  -3.5651329184225970e-02  -3.8530395460615027e-02  -4.1369973848758110e-02  -4.4171055837981192e-02  -4.6934689803752205e-02  -4.9662057142852989e-02  -5.2354093992144309e-02  -5.5011768859005619e-02  -5.7636037177307510e-02  -6.0228472060828320e-02  -6.2789466062001725e-02  -6.5320289427157160e-02  -6.7821604600641280e-02  -7.0295426549060930e-02  -7.2742192507486161e-02  -7.5162154605713433e-02  -7.7557051291219009e-02  -7.9928456870264480e-02  -8.2276085778456950e-02  -8.4602000901617333e-02  -8.6906933452446433e-02  -8.9191179002911763e-02  -9.1456324417844154e-02  -9.3703273909684914e-02  -9.5932959723546055e-02  -9.8147124295966753e-02  -1.0034587313238282e-01  -1.0252968804660360e-01  -1.0469923586981722e-01  -1.0685795236055151e-01  -1.0900495637598888e-01  -1.1114093770495559e-01  -1.1326777586018910e-01  -1.1538587685697374e-01  -1.1749620168039863e-01  -1.1959986086896381e-01  -1.2169873318714095e-01  -1.2379329055468685e-01  -1.2588377124704314e-01  -1.2797252636957454e-01  -1.3006044599767830e-01  -1.3214864890197162e-01  -1.3423848885553299e-01  -1.3633116515565843e-01  -1.3842828404623045e-01  -1.4053150124853461e-01  -1.4264265915527016e-01  -1.4476367582275837e-01  -1.4689600945728695e-01  -1.4904084481531477e-01  -1.5118616571296717e-01  -1.5355840012878952e-01  -1.5474454012107169e-01  -1.5829578404416711e-01  -1.5556632748092769e-01  -1.6057239102462997e-01  -1.5805380111821704e-01  -2.0356256230450484e-01  -1.8208840133149115e-01  -1.7550289432425981e-01  -1.7071192635687946e-01  -1.6747817855090277e-01  -1.6505173688394717e-01  -1.6323475700656037e-01  -1.6190425516311455e-01  -1.6110611218978468e-01  -1.6091178269216924e-01  -1.6131880196275636e-01  -1.6211148108200096e-01  -1.6248693388780674e-01  -1.6228222312536714e-01  -1.6161253251764082e-01  -1.6056851762682145e-01  -1.5919395574542486e-01  -1.5747392548429381e-01  -1.5539569009621754e-01  -1.5298831052089165e-01  -1.5026914242642686e-01  -1.4724217296134259e-01  -1.4392111054479523e-01  -1.4031701885023132e-01  -1.3644192412397088e-01  -1.3231615171699856e-01  -1.2795256677554950e-01  -1.2336352148551785e-01  -1.1856726996664171e-01  -1.1358260086963616e-01  -1.0842004697795456e-01  -1.0310945512852539e-01  -9.7668958896305266e-02  -9.2114367807001149e-02  -8.6476329099748339e-02  -8.0773150760976312e-02  -7.5034170722564034e-02  -6.9281623482309387e-02  -6.3538018119515094e-02  -5.7834901434416698e-02  -5.2193048562957416e-02  -4.6638345493493674e-02  -3.5776133405818027e-02  -3.0477961662568609e-02  -2.5306206132778883e-02  -2.0294972974112722e-02  -1.5471165075913550e-02  -1.0836919777433738e-02  -6.4191938302048338e-03  -2.2232868572007150e-03  1.7021291729189876e-03  5.3809610580566481e-03  8.8126940373328775e-03  1.1976174769811880e-02  1.4873596459575153e-02  1.7511869203517178e-02  1.9894890281103354e-02  2.2027707850926850e-02  2.3925671898980792e-02  2.5589315202107103e-02  2.7033010018354887e-02  2.8287256878043510e-02  2.9340646124241664e-02  3.0223351359751370e-02  3.0949000707151661e-02  3.1525682798082072e-02  3.1974836462491246e-02  3.2300928502423734e-02  3.2535093744765695e-02  3.2667911988923749e-02  3.2720374538126956e-02  3.2697380004921103e-02  3.2606728900241418e-02  3.2457843404057898e-02  3.2259954727433204e-02  3.2017134823196278e-02  3.1730089793297132e-02  3.1405967493023941e-02  3.1045406969959784e-02  3.0651077680500422e-02  3.0223996676346128e-02  2.9764515145572899e-02  2.9272945015715198e-02  2.8749143061510468e-02  2.8191804719307708e-02  2.7601180643947350e-02  2.6974706502707897e-02  2.6311019463551164e-02  2.5611200990868180e-02  2.4870382970986201e-02  2.4086584602924288e-02  2.3264175009357829e-02  2.2393593019117648e-02  2.1481915553998972e-02  2.0518654492201013e-02  1.9512658434568848e-02  1.8456151415209329e-02  1.7345360828780205e-02  1.6190775435412207e-02  1.4978234850813619e-02  1.3719098271061046e-02  1.2407286682695839e-02  1.1041794494875213e-02  9.6226231787537950e-03  8.1519129856076466e-03  6.6328369679118995e-03  5.0559877839401078e-03  3.4390171231712141e-03  1.7656931703265136e-03  0.0000000000000000e+00  0.0000000000000000e+00  0.0000000000000000e+00  0.0000000000000000e+00  0.0000000000000000e+00  0.0000000000000000e+00  0.0000000000000000e+00  0.0000000000000000e+00  0.0000000000000000e+00  1.9164637344797049e-03  3.7053256666322327e-03  5.4664765273263827e-03  7.1745327281863688e-03  8.8332573637462160e-03  1.0441360076011970e-02  1.1997900445625147e-02  1.3501149549225076e-02  1.4948235322303428e-02  1.6336934672888118e-02  1.7663231817145165e-02  1.8924632110446184e-02  2.0116059796368775e-02  2.1234506422205337e-02  2.2275130683625691e-02  2.3231339824770655e-02  2.4102742111434493e-02  2.4878205881770220e-02  2.5553070053604843e-02  2.6121186455737071e-02  2.6575697388443193e-02  2.6909966219675729e-02  2.7118336424204040e-02  2.7190058826732050e-02  2.7123526520010929e-02  2.6907031532815737e-02  2.6538407072742236e-02  2.6006321257525510e-02  2.5305683517287705e-02  2.4433856532625982e-02  2.3380145595873515e-02  2.2139102202592846e-02  2.0725659693342384e-02  1.9125506717888485e-02  1.7312713568781966e-02  1.5327468734781710e-02  1.3146553194359390e-02  1.0770817793895994e-02  8.2017267057784404e-03  5.4469384670326913e-03  2.4975820059149095e-03  -6.3251411954212103e-04  -3.9517430045401128e-03  -7.4494730476526586e-03  -1.1136848155496754e-02  -1.4998011842977846e-02  -1.9034128964885065e-02  -2.3236067926950273e-02  -2.7606979456672419e-02  -3.2132762123528100e-02  -3.6810488744779130e-02  -4.1628521083155796e-02  -4.6573294722187540e-02  -5.1635973811180999e-02  -5.6800706585140720e-02  -6.2043712725593121e-02  -6.7305713135943357e-02  -7.2633083980445101e-02  -7.7940669132661858e-02  -8.3168836678024063e-02  -8.8321574499219832e-02  -9.3327342617737730e-02  -9.8166839638510778e-02  -1.0273423189426625e-01  -1.0702306173209204e-01  -1.1092400042535473e-01  -1.1442517842488184e-01  -1.1741613472512552e-01  -1.1990129087844320e-01  -1.2174862530008021e-01  -1.2297370217155863e-01  -1.2350515262852328e-01  -1.2321556830052681e-01  -1.2227672050259687e-01  -1.2055534668349480e-01  -1.1806052653404656e-01  -1.1491075674178129e-01  -1.1113069697838530e-01  -1.0684638216159255e-01  -1.0212731454563881e-01  -9.6974245471667997e-02  -9.1522859482790139e-02  -8.5812398011852198e-02  -7.9934879970725070e-02  -7.3894916369728045e-02  -6.7720420789056421e-02  -6.1463400057592182e-02  -5.5136857488880885e-02  -4.8751866209160215e-02  -4.2331835708292617e-02  -3.5881851948872029e-02  -2.9420081381542840e-02  -2.2949426537806492e-02  -1.6472458792709341e-02  -1.0000499748854738e-02  -3.5347766849250072e-03  2.9234976030694786e-03  9.3708858251322809e-03  1.5804325056156966e-02  2.2222671187771992e-02  2.8625409660768927e-02  3.5011029448971505e-02  4.1379343309129277e-02  4.7728766057431628e-02  5.4059646298274970e-02  6.0371271086703128e-02  6.6663373318151850e-02  7.2935859914688136e-02  7.9188428176522802e-02  8.5421029972409315e-02  9.1633632024031256e-02  9.7826140501081155e-02  1.0399853076953597e-01  1.1015080423373974e-01  1.1628297324113156e-01  1.2239501802154101e-01  1.2848700921832515e-01  1.3455896849612992e-01  1.4061092552281398e-01  1.4664293470827766e-01  1.5265503173214681e-01  1.5864724078265144e-01  1.5864694645161964e-01  1.5864622771597178e-01  1.5864509953892875e-01  1.5864372920660272e-01  1.5864235746052716e-01  1.5864122692564528e-01  1.5864050340040242e-01  1.5864021012566523e-01  -1.5382909363793543e-01  -1.8659348396079065e-01  -1.5727025095380190e-01  -1.4373225198325901e-01  -1.3329307453113962e-01  -1.2282180286700826e-01  -1.1238020960470380e-01  -1.0161004572318527e-01  -9.0393353123559672e-02  -8.1346041205926520e-02  -7.1363207999197847e-02  -6.1526276164604043e-02  -5.1030472765182300e-02  -3.9958598586624386e-02  -2.8271197396120100e-02  -1.4197688211209689e-01  -1.2553314306496563e-01  -1.0590311749408406e-01  -8.3562577019471826e-02  -6.0955248113783354e-02  -3.8510898837813515e-02  -1.6976009346244450e-01  -1.2178385200430700e-01  -1.8271153581586548e-02  -1.2005153809467874e-03  1.3012525602342281e-02  -1.6695708882047444e-01  2.2912971983510614e-02  -1.5939192228366521e-02  2.8429795252346245e-02  -2.6093335346334804e-03  3.1526470980346298e-02  -1.1211189595059162e-01  -9.5113996622501959e-02  3.2575231168508648e-02  -7.4851505100180418e-02  1.1201402042161650e-02  -4.8701100916230596e-02  3.2271112101076471e-02  2.6061695165074960e-02  -1.5939685423950267e-01  3.1154726421351159e-02  -2.5189677603967359e-02  -1.2228354351493917e-01  4.1464326806051319e-02  2.9468315739357688e-02  -2.2350336385911370e-03  5.8961936501903713e-02  6.6882564991553638e-03  2.7223397639398846e-02  1.4336660448924468e-02  7.6252918669497405e-02  -1.1619320156340106e-01  2.4492132114807781e-02  1.9913771055752528e-02  -1.0437794335816555e-01  2.3913626601200732e-02  2.0980612395060598e-02  -8.8663393274834551e-02  9.6453022638774435e-02  1.1047009725008221e-01  -1.2957947105864086e-02  1.7870208476070282e-02  1.4175720123093531e-02  2.6200908503171215e-02  -7.1014025045756102e-02  2.7049821063535529e-02  -1.5009234645222808e-01  -4.5983954599572267e-02  2.6248959831404042e-02  1.2792186720322660e-01  -2.6223190242409797e-02  1.0303808023211868e-02  2.3600066492023123e-02  -6.6469463642709319e-03  1.9180609402761443e-02  2.0607434909017942e-02  5.0894828415500658e-02  1.6941894300053707e-02  6.9855903536763964e-02  8.8633324468054886e-02  1.2705857723494102e-02  1.2023332565484034e-01  1.6058269468355319e-03  1.5306376021306328e-01  -1.6210402477721594e-01  8.0999209154185656e-03  5.7224133668106157e-03  1.3803594126449864e-01  -1.7351413208682634e-01  -1.6145401908811985e-01  -1.1805512795264338e-01  -5.8207709382646584e-02  5.6533340633479340e-03  3.1486027100665517e-02  1.3837610856664825e-01  -3.9336293406344473e-02  -6.3955910966500357e-02  -8.5116885528506395e-02  -1.0421849724336581e-01  8.6515381421615939e-02  2.6915996152510929e-02  6.7342236680911757e-02  1.0087489244127319e-01  2.5128686335041291e-02  2.2822024936004583e-02  4.9640377189957008e-02  2.5853793923830908e-02  2.8427864605894585e-02  3.4102999401088289e-02  3.0378434995438946e-02  3.1797180764151431e-02  3.2553508983630471e-02  3.2283711553845247e-02  -2.8257429801444849e-02  1.8513493128564085e-02  3.0286685272701706e-02  2.6007001122527129e-02  4.1286295138358532e-03  1.8577303551840715e-02  6.7190433643960447e-03  -8.8673468799178937e-03  1.3394647473485826e-03  -9.7914945964713788e-03  -2.1725307674179177e-02  1.5340361701251862e-01  -3.3882181734635738e-02  -4.5564452539094219e-02  -5.6339572137023078e-02  -6.6684042599759241e-02  -7.6434858588668581e-02  -8.5680661889569742e-02  -1.4837215849308774e-01  -9.7084158911341825e-02  -1.0798437525167319e-01  -1.1862014745041838e-01  -1.3431596525552575e-01  -1.2917476970876646e-01  -9.5225946005702083e-02  -1.1561713461908206e-01  -7.3231791971409124e-02  -4.9727455758828948e-02  -1.3959187922128038e-01  -1.5850086184303716e-01  1.6841408318298784e-03  1.5290691311490870e-01  4.5149789758227041e-03  -1.6188276806341864e-01  1.5365556632817590e-01  1.3657270154331502e-03  1.4955125127914531e-01  -1.6185105785702453e-01  -1.6151272002357986e-01  -1.6105359136591005e-01  -1.6155377727325465e-01  -1.6107699009403392e-01  -1.6190540191801514e-01  -1.6124750079652547e-01  -1.6236047643848270e-01  -1.6153198825534870e-01  -1.6268297482175917e-01  -1.6173576048532401e-01  -1.6261015359473155e-01  -1.6146781567940593e-01  -1.6197815594518447e-01  -1.6069869541486484e-01  -1.6089042524188377e-01  -1.5943602484743355e-01  -1.5940517274037275e-01  -1.5778200912693474e-01  -1.5735089516514961e-01  -1.5542768517354344e-01  -1.5902491938787144e-01  -1.5595965264413938e-01  -1.5321890078790665e-01  -1.5628301043105530e-01  -1.5822308951036418e-01  -1.5351970401928219e-01  -1.5063935021403868e-01  -1.5086247914201673e-01  -1.4761888311623517e-01  -1.4772490398349600e-01  -1.4416214588681317e-01  -1.4418625562722862e-01  -1.4055287851252707e-01  -1.4024360380695772e-01  -1.3588188005371177e-01  -1.3568013687738839e-01  -1.3149813244870887e-01  -1.3087448351316910e-01  -1.2653301466266617e-01  -1.2567155033937244e-01  -1.2124299079161889e-01  -1.2015726350003743e-01  -1.1568940756076218e-01  -1.1433991964345619e-01  -1.0990225080937351e-01  -1.0825350158095226e-01  -1.0389664331351037e-01  -1.0196249866598942e-01  -9.7752371883583100e-02  -9.5480518027515490e-02  -9.1506994031392286e-02  -8.8781497159906117e-02  -1.5439123621717774e-01  -1.5613637597165561e-01  -8.5177163340906831e-02  -8.2029058658275422e-02  -7.8845688356925694e-02  -7.5703320732444263e-02  -7.2604964666163743e-02  -6.9114914020034154e-02  -6.6462335572295042e-02  -6.2648626805385479e-02  -1.4951363940385254e-01  -6.0531100257089167e-02  -5.6296402018612926e-02  -5.4511886177395531e-02  -5.0075055815632014e-02  -4.8905879106121417e-02  -4.4134293433598606e-02  -1.5150401823799692e-01  -1.5336953094456762e-01  -1.6310974090404110e-01  -4.3439822397781234e-02  -3.8388145001980116e-02  -3.8249383614411936e-02  -3.2923708172633223e-02  -3.3315180966993346e-02  -2.7772790201708308e-02  -1.5948339129727374e-01  -2.8655526510149243e-02  -2.2903111530409234e-02  -1.3983329865683428e-01  -2.4256239008734647e-02  -1.8362010271813778e-02  -2.0149169561680561e-02  -1.4141938701172080e-02  -1.6252346406067084e-02  -1.0233575237554712e-02  -1.6006535637815203e-01  -1.2641805814684387e-01  -1.2689085390444122e-02  -6.6380414423212976e-03  -1.4766119330338984e-01  -1.4879202552327325e-01  -1.4614657107935813e-01  -1.1056843963581392e-01  -9.3170993884133229e-03  -3.1948964376823023e-03  -6.2876526195852957e-03  -1.0502727566079845e-04  -3.4098055518744369e-03  2.5696177413951789e-03  -3.9195554840924046e-02  -4.1183611872406135e-04  -2.2275776495238785e-02  -5.8527591879779704e-02  -7.4421039955303240e-04  5.0209301598346150e-03  8.3283551595760997e-03  1.0624627607882129e-02  7.3137969394963635e-03  1.2695548702181635e-02  9.4758373909536210e-03  1.4628279048210643e-02  1.1427092397837672e-02  1.6310929508539431e-02  1.3213967636140271e-02  1.7861382064265713e-02  1.4895679950184587e-02  1.9223635938488526e-02  1.6353676759464062e-02  2.0468334290308497e-02  1.7811025645758025e-02  2.1705633389396347e-02  1.9112262082115132e-02  2.2721377005838105e-02  2.0338463343513191e-02  2.3604201715521505e-02  2.1319480050288626e-02  2.4408163834389519e-02  -7.8598214484924087e-02  -9.3551493179193299e-02  2.2323177279724989e-02  2.5086927766607352e-02  2.3275163107029335e-02  2.5732868159022707e-02  -1.4698141211814836e-01  -1.1219201812570265e-01  2.4123260921576382e-02  2.6266633653414195e-02  -1.2933499004630533e-01  -7.6215068173974429e-02  -1.4290870497462266e-01  -1.4360109284481054e-01  -1.5022749867866339e-01  -1.4390515099287604e-01  -1.4940674185348637e-01  -1.4347320035892908e-01  -1.4923069386183938e-01  -1.4248593951857860e-01  -1.4646017010204732e-01  -1.4049952414780009e-01  -1.4455480917355690e-01  -1.3813096155469434e-01  -1.4065579993988503e-01  -1.3512701297156263e-01  -1.3696869777154341e-01  -1.3195188307582859e-01  -1.3317833351035846e-01  -1.2852254024173554e-01  -1.2934043404824164e-01  -1.2501807924863306e-01  -1.2547196557018173e-01  -1.2142109203781710e-01  -1.2162232990466106e-01  -1.1780082795213166e-01  -1.1778507888726679e-01  -1.1420555412196225e-01  -1.1364281532906190e-01  -1.1033162814383853e-01  -1.1054298059809542e-01  -1.0693122923975791e-01  -1.0664756237614832e-01  -1.0332133799441884e-01  -1.0305513263558430e-01  -9.9755515550677937e-02  -9.9234285932624247e-02  -9.6129844721811158e-02  -1.2992026267988746e-01  -1.0668201267705475e-01  -1.2053462425277445e-01  -9.5546051110744587e-02  -9.2426000379592338e-02  -9.2776426950333654e-02  -8.9242281216604727e-02  -8.8681759465250518e-02  -8.5626689192865660e-02  -8.4892966040515050e-02  -8.1956873911979519e-02  -8.1119815817783214e-02  -7.8231057454216421e-02  -8.5452827743525334e-02  -1.5446763598943722e-01  -1.4598988625924400e-01  -7.7407796720822278e-02  -7.4448215622216971e-02  -7.5231778388856654e-02  -7.1453143550287909e-02  -7.0641518072440346e-02  -6.7693108422506809e-02  -6.6778574395862711e-02  -6.3908505733911047e-02  -1.3779888030915891e-01  -6.8243261574620198e-02  -6.2939113805256200e-02  -6.0138263876656543e-02  -1.2943726786342746e-01  -5.9213814570908511e-02  -5.6312841446562588e-02  -5.7511483970195475e-02  -5.3364102890620102e-02  -5.2378378261152388e-02  -4.9316575080460008e-02  -5.0262221161069098e-02  -4.6215374494588422e-02  -4.5286966590629044e-02  -4.2177654698548971e-02  -4.1242189518812727e-02  -3.8047035037302911e-02  -3.9008336229414894e-02  -3.4880085399486310e-02  -3.3890733151005041e-02  -3.0747867918771550e-02  -2.9798718351249500e-02  -2.6633937819806715e-02  -1.3843308110922295e-01  -1.0630169809382717e-01  -1.2123342100061851e-01  -2.5779854270802476e-02  -2.2552478221708555e-02  -2.3419232120344313e-02  -1.9183818809911896e-02  -1.8323330690001138e-02  -1.4954675895975445e-02  -2.0049488752208841e-02  2.4797360377449729e-02  2.6712081813861567e-02  2.5411844899914788e-02  2.7089879074918145e-02  2.5960864495706972e-02  2.7395559007885800e-02  -8.7980472608127983e-02  -4.8443748164827681e-02  -1.6292881877833557e-01  -1.4063213662999337e-02  -1.0761270993637271e-02  -9.8537325601748299e-02  2.2262918124733310e-02  2.6483296794230848e-02  1.3398470681445651e-02  2.6418478578278160e-02  2.7620234258298529e-02  2.8684449670578167e-02  2.8688758940134687e-02  2.7770074540282103e-02  2.8640420548507378e-02  2.7852561274792423e-02  2.8532927368794099e-02  2.7852386944251597e-02  2.8358119298662627e-02  2.7779872327190439e-02  2.8125153307041628e-02  2.7623420304914176e-02  2.7820424722328301e-02  2.7390615061034587e-02  2.7456124421799743e-02  2.7085063402111656e-02  2.7030252947971425e-02  2.6710084111561571e-02  2.6545226193935543e-02  2.6255227406269281e-02  2.5985769498940350e-02  2.5718539443536428e-02  2.5374943017268097e-02  2.5104731732771762e-02  2.4677135402581974e-02  2.4430930844211194e-02  2.3939187160490850e-02  2.3663160274114498e-02  2.3115538536670345e-02  2.2839238748090612e-02  2.2244305846457261e-02  2.8303515051811924e-02  -3.5908719394634414e-02  -6.9762913675213881e-02  -9.7482199297109131e-03  -6.4587245427232803e-03  -7.4628657747657237e-03  -3.0086234178247030e-03  -4.0571865531510969e-03  5.0075272826524870e-04  1.4286926178714795e-03  4.9580031392246083e-03  6.0053215590054011e-03  9.5072865238179528e-03  8.5573854833699906e-03  1.3094945523606488e-02  1.3902449071251885e-02  1.7597131787291442e-02  1.8390371159117833