<?xml version="1.0"?>
<VTKFile type="UnstructuredGrid"  version="0.1"  >
<UnstructuredGrid>
<Piece  NumberOfPoints="2886" NumberOfCells="5412">
<Points>
<DataArray  type="Float64"  NumberOfComponents="3"  format="ascii">0 0.1 0  0.98 0.1 0  1 0.1 0  1 0 0  1.5 0 0  3 0 0  3 0.3 0  0 0.3 0  0.01975375321854102 0.1 0  0.03918897458218897 0.1 0  0.05831079002627837 0.1 0  0.07712425666319796 0.1 0  0.0956343475259058 0.1 0  0.1138459546796227 0.1 0  0.1317638870668193 0.1 0  0.1493928840275937 0.1 0  0.1667376092280033 0.1 0  0.1838026357802664 0.1 0  0.2005924801287244 0.1 0  0.2171115811543574 0.1 0  0.2333643037107681 0.1 0  0.2493549444060462 0.1 0  0.2650877293306821 0.1 0  0.2805668058011438 0.1 0  0.2957962848620976 0.1 0  0.3107801766802674 0.1 0  0.3255224447361181 0.1 0  0.3400269848175519 0.1 0  0.3542976327080778 0.1 0  0.3683381609158136 0.1 0  0.3821522744564845 0.1 0  0.3957436316838916 0.1 0  0.4091158196437086 0.1 0  0.4222723742184605 0.1 0  0.4352167733293057 0.1 0  0.4479524348643424 0.1 0  0.4604827295467524 0.1 0  0.4728109659990664 0.1 0  0.4849404035409129 0.1 0  0.4968742471455402 0.1 0  0.508615651843175 0.1 0  0.520167721130924 0.1 0  0.5315335063628542 0.1 0  0.5427160117228604 0.1 0  0.5537181940261912 0.1 0  0.564542961924507 0.1 0  0.575193173270606 0.1 0  0.5856716438765114 0.1 0  0.5959811458006617 0.1 0  0.6061243988680743 0.1 0  0.6161040893285659 0.1 0  0.6259228503970299 0.1 0  0.6355832809287655 0.1 0  0.6450879281079505 0.1 0  0.6544393102991295 0.1 0  0.663639896558931 0.1 0  0.6726921201956305 0.1 0  0.6815983691630338 0.1 0  0.6903610031396646 0.1 0  0.6989823343332418 0.1 0  0.7074646404270378 0.1 0  0.7158101645005117 0.1 0  0.7240211149852543 0.1 0  0.7320996585612525 0.1 0  0.7400479319727645 0.1 0  0.7478680336617921 0.1 0  0.755562036504958 0.1 0  0.7631319665092091 0.1 0  0.7705798279317605 0.1 0  0.777907588066146 0.1 0  0.7851171851013118 0.1 0  0.7922105226004981 0.1 0  0.7991894774550319 0.1 0  0.8060558928136696 0.1 0  0.812811583201334 0.1 0  0.8194583352091183 0.1 0  0.8259979035038147 0.1 0  0.8324320194413813 0.1 0  0.8387623808293405 0.1 0  0.8449906627004957 0.1 0  0.8511185094880469 0.1 0  0.8571475426008311 0.1 0  0.8630793533568246 0.1 0  0.8689155114558531 0.1 0  0.8746575581239063 0.1 0  0.8803070109173519 0.1 0  0.885865363938836 0.1 0  0.8913340851680313 0.1 0  0.8967146206523592 0.1 0  0.9020083930695622 0.1 0  0.9072167995950768 0.1 0  0.9123412183131177 0.1 0  0.9173830029719022 0.1 0  0.9223434865647732 0.1 0  0.9272239785872722 0.1 0  0.9320257720706087 0.1 0  0.9367501330378739 0.1 0  0.9413983102716995 0.1 0  0.9459715351562933 0.1 0  0.9504710127113115 0.1 0  0.9548979346500661 0.1 0  0.9592534708344373 0.1 0  0.9635387708980176 0.1 0  0.9677549682252325 0.1 0  0.971903177251235 0.1 0  0.9759844952956497 0.1 0  0.9840000000000086 0.1 0  0.987999999999974 0.1 0  0.9919999999999393 0.1 0  0.9959999999999913 0.1 0  1 0.09591793123533533 0  1 0.09133596463859224 0  1 0.08619288104391448 0  1 0.08041996484521211 0  1 0.07394008421771697 0  1 0.06666666567302955 0  1 0.05850252932209174 0  1 0.04933859630113544 0  1 0.03905242821848202 0  1 0.02750659386753798 0  1 0.01454683679239736 0  1.015625 0 0  1.03125 0 0  1.046875 0 0  1.0625 0 0  1.078125 0 0  1.09375 0 0  1.109375 0 0  1.125 0 0  1.140625 0 0  1.15625 0 0  1.171875 0 0  1.1875 0 0  1.203125 0 0  1.21875 0 0  1.234375 0 0  1.25 0 0  1.265625 0 0  1.28125 0 0  1.296875 0 0  1.3125 0 0  1.328125 0 0  1.34375 0 0  1.359375 0 0  1.375 0 0  1.390625 0 0  1.40625 0 0  1.421875 0 0  1.4375 0 0  1.453125 0 0  1.46875 0 0  1.484375 0 0  1.515920751924515 0 0  1.531989369316721 0 0  1.54820720925872 0 0  1.564575665560501 0 0  1.581096138674279 0 0  1.597770029901263 0 0  1.614598783332311 0 0  1.631583831055205 0 0  1.64872661129721 0 0  1.666028606716533 0 0  1.683491276608443 0 0  1.701116134125304 0 0  1.718904673324128 0 0  1.736858414799339 0 0  1.754978895814663 0 0  1.773267661782904 0 0  1.791726281103402 0 0  1.810356325314689 0 0  1.8291593848892 0 0  1.848137076690385 0 0  1.867291007717254 0 0  1.886622833871288 0 0  1.90613418642363 0 0  1.925826753299799 0 0  1.945702199101513 0 0  1.96576223584749 0 0  1.986008569283268 0 0  2.006442931928877 0 0  2.02706707547783 0 0  2.047882750887917 0 0  2.06889175187935 0 0  2.090095860038271 0 0  2.111496891648636 0 0  2.133096679109554 0 0  2.154897066851056 0 0  2.176899916687499 0 0  2.199107102752146 0 0  2.22152053937028 0 0  2.244142122958061 0 0  2.266973806444078 0 0  2.290017523268154 0 0  2.313275249499252 0 0  2.336748971745516 0 0  2.360440702338606 0 0  2.384352453384031 0 0  2.408486280477412 0 0  2.432844240041185 0 0  2.457428414757088 0 0  2.482240901796653 0 0  2.507283830121838 0 0  2.532559332080812 0 0  2.558069568787417 0 0  2.583816724966441 0 0  2.60980299606584 0 0  2.636030600971886 0 0  2.662501790984011 0 0  2.689218818279327 0 0  2.716183964547616 0 0  2.743399548861297 0 0  2.77086788244719 0 0  2.798591312896326 0 0  2.826572223178268 0 0  2.854812990138617 0 0  2.883316031690714 0 0  2.912083780657189 0 0  2.941118704633482 0 0  2.970423276998917 0 0  3 0.02999999999994495 0  3 0.05999999999987042 0  3 0.089999999999783 0  3 0.119999999999701 0  3 0.149999999999619 0  3 0.179999999999692 0  3 0.2099999999997737 0  3 0.2399999999998511 0  3 0.2699999999999185 0  2.970138294777171 0.3 0  2.940375666438236 0.3 0  2.910711782853056 0.3 0  2.881146331305122 0.3 0  2.851678975030285 0.3 0  2.822309388626621 0.3 0  2.793037250095074 0.3 0  2.76386223529133 0.3 0  2.734784017903872 0.3 0  2.705802289276642 0.3 0  2.676916713794697 0.3 0  2.648126987654635 0.3 0  2.619432780406184 0.3 0  2.590833779385199 0.3 0  2.562329669847737 0.3 0  2.533920134950189 0.3 0  2.505604855727852 0.3 0  2.477383539822502 0.3 0  2.449255847639465 0.3 0  2.421221492569094 0.3 0  2.393280152486815 0.3 0  2.36543151914496 0.3 0  2.337675285481809 0.3 0  2.310011142385583 0.3 0  2.282438797441587 0.3 0  2.254957931061538 0.3 0  2.227568248063605 0.3 0  2.200269436651085 0.3 0  2.173061204949961 0.3 0  2.145943251515011 0.3 0  2.118915272469994 0.3 0  2.091976978084957 0.3 0  2.065128060700849 0.3 0  2.038368218849433 0.3 0  2.01169717777258 0.3 0  1.985114624111908 0.3 0  1.958620267850966 0.3 0  1.93221382054972 0.3 0  1.905894991850698 0.3 0  1.879663489459713 0.3 0  1.853519019126419 0.3 0  1.827461291053897 0.3 0  1.801490031354372 0.3 0  1.775604937580312 0.3 0  1.74980572560258 0.3 0  1.724092118631866 0.3 0  1.698463829173586 0.3 0  1.672920575782554 0.3 0  1.647462076974085 0.3 0  1.622088043536933 0.3 0  1.5967981978949 0.3 0  1.571592267767068 0.3 0  1.546469970305736 0.3 0  1.521431023814044 0.3 0  1.496475156230927 0.3 0  1.471602093687753 0.3 0  1.446811560490646 0.3 0  1.422103279101731 0.3 0  1.397476971708191 0.3 0  1.37293238939876 0.3 0  1.348469231419202 0.3 0  1.324087248732772 0.3 0  1.299786165921677 0.3 0  1.275565710847046 0.3 0  1.251425617644257 0.3 0  1.227365618676339 0.3 0  1.203385446174014 0.3 0  1.179484853067473 0.3 0  1.155663548773374 0.3 0  1.131921292279077 0.3 0  1.108257802159295 0.3 0  1.084672829009693 0.3 0  1.061166115303374 0.3 0  1.037737392995421 0.3 0  1.01438640299116 0.3 0  0.991112899770314 0.3 0  0.9679166155523955 0.3 0  0.944797284182564 0.3 0  0.921754678526042 0.3 0  0.8987885143602501 0.3 0  0.8758985548820624 0.3 0  0.8530845484099929 0.3 0  0.8303462351786988 0.3 0  0.8076833651172373 0.3 0  0.7850956864865304 0.3 0  0.7625829601354557 0.3 0  0.7401449314598274 0.3 0  0.717781337993959 0.3 0  0.6954919649675473 0.3 0  0.6732765357561226 0.3 0  0.6511348120768439 0.3 0  0.6290665642016573 0.3 0  0.6070715355430467 0.3 0  0.5851494825775325 0.3 0  0.5633001690203812 0.3 0  0.5415233562273221 0.3 0  0.5198187909431873 0.3 0  0.4981862401387795 0.3 0  0.4766254686134248 0.3 0  0.4551362360485234 0.3 0  0.4337182975262159 0.3 0  0.4123714223228037 0.3 0  0.3910953802377493 0.3 0  0.3698899313205595 0.3 0  0.3487548463710963 0.3 0  0.3276898864081783 0.3 0  0.3066948129116018 0.3 0  0.2857694003037476 0.3 0  0.2649134227095047 0.3 0  0.2441266417321288 0.3 0  0.2234088223399122 0.3 0  0.2027597568977288 0.3 0  0.1821792020676698 0.3 0  0.1616669305402443 0.3 0  0.1412227158799362 0.3 0  0.12084633013886 0.3 0  0.1005375673448281 0.3 0  0.08029618164595353 0.3 0  0.06012194778526769 0.3 0  0.04001466495039718 0.3 0  0.01997408913631205 0.3 0  0 0.2800000000000553 0  0 0.2600000000001105 0  0 0.2400000000001658 0  0 0.2200000000002211 0  0 0.2000000000002764 0  0 0.1800000000002244 0  0 0.1600000000001691 0  0 0.140000000000115 0  0 0.1200000000000564 0  1.13346801534201 0.01255848438672509 0  1.003577645172735 0.09351054173913405 0  0.9777559943702486 0.1034978156913738 0  0.9524533750752109 0.1040889939962738 0  0.9296242411226409 0.1041520033606139 0  0.9046110503652111 0.104409422380137 0  0.8777709649694228 0.1053360318797398 0  0.8483859145648608 0.1061007868330701 0  0.8162363822948977 0.1052777104363292 0  0.7893110024210437 0.1060761643971561 0  0.7587949382612539 0.1067265405088633 0  0.7280603867732535 0.1069398153264939 0  0.6947001989413015 0.1075609887579097 0  0.6590363283767549 0.1076715322596598 0  0.6210028614493155 0.1072970410408442 0  1.1953125 0.01353164693413185 0  1.258193991486058 0.01269648635163345 0  1.3201967268638 0.01407907077719561 0  1.383538555392096 0.01434101079053473 0  1.445312500000001 0.01303671693628424 0  1.508925448095738 0.01398525724792267 0  0.9939176689634008 0.1034638089837981 0  1.120967497222226 0.2796788492172345 0  1.572835902117391 0.01424132418857359 0  1.637573277451887 0.01212536916586023 0  1.709730776795181 0.01466855431023635 0  1.005631976950563 0.07074019818158772 0  1.784944696816299 0.01454708406461822 0  0.5805605730631225 0.1101465090472147 0  1.855621181165637 0.01550931272897607 0  0.5366111276616774 0.1096761308243709 0  1.935200147913231 0.01760344159641829 0  1.214922267975168 0.2799787705802257 0  1.31178773425331 0.2792
[...]
<PointData  Scalars="pressure"> 
<DataArray  type="Float64"  Name="pressure"  format="ascii">1.5849547146658408e-01  -1.6552189693081340e-01  -2.1623388035333752e-01  -1.6167368726941847e-01  -4.1310163380545037e-02  0.0000000000000000e+00  0.0000000000000000e+00  1.5850254976944253e-01  1.5256934918848938e-01  1.4673871727549290e-01  1.4100200943395941e-01  1.3535770104040429e-01  1.2980427902450575e-01  1.2434026433356042e-01  1.1896422220961497e-01  1.1367468301303837e-01  1.0847025109637491e-01  1.0334953829570248e-01  9.8311140338488576e-02  9.3353708113724065e-02  8.8475927297742674e-02  8.3676436533776058e-02  7.8953938421621447e-02  7.4307217800515704e-02  6.9734882178984603e-02  6.5235738543820115e-02  6.0808546115338077e-02  5.6452007705186304e-02  5.2164959480501719e-02  4.7946272075558079e-02  4.3794600709184957e-02  3.9708864915166564e-02  3.5687781915775804e-02  3.1730254166936291e-02  2.7835237889038800e-02  2.4001468245506613e-02  2.0227769482062955e-02  1.6513095259867890e-02  1.2856318419318337e-02  9.2562510360875844e-03  5.7119012872180394e-03  2.2220413746969698e-03  -1.2143480724450539e-03  -4.5984382315088336e-03  -7.9312994237531430e-03  -1.1213616807576900e-02  -1.4447192022225167e-02  -1.7632648927945319e-02  -2.0771094706458711e-02  -2.3863806341979977e-02  -2.6911801480822450e-02  -2.9915530312490956e-02  -3.2877033126476399e-02  -3.5796801473980795e-02  -3.8675956290551081e-02  -4.1515631512132813e-02  -4.4316819518026358e-02  -4.7080569039038608e-02  -4.9808062183275333e-02  -5.2500236042592817e-02  -5.5158059508342010e-02  -5.7782488390540267e-02  -6.0375097677495639e-02  -6.2936279624072861e-02  -6.5467305734100811e-02  -6.7968839248646440e-02  -7.0442895339808076e-02  -7.2889914894372063e-02  -7.5310147251525822e-02  -7.7705333297942603e-02  -8.0077049735011771e-02  -8.2425010154764111e-02  -8.4751278978695235e-02  -8.7056590734121711e-02  -8.9341239045051701e-02  -9.1606813354111194e-02  -9.3854219312758044e-02  -9.6084390268902989e-02  -9.8299073178981261e-02  -1.0049837063425131e-01  -1.0268277013608608e-01  -1.0485293274689300e-01  -1.0701230706863157e-01  -1.0916000900687203e-01  -1.1129672896972446e-01  -1.1342435242309697e-01  -1.1554328629719531e-01  -1.1765449537011678e-01  -1.1975909253548321e-01  -1.2185896533121439e-01  -1.2395458778763689e-01  -1.2604620111356407e-01  -1.2813616680202614e-01  -1.3022538139922024e-01  -1.3231497236015463e-01  -1.3440630380928828e-01  -1.3650058680128557e-01  -1.3859944262740026e-01  -1.4070454496787382e-01  -1.4281775921334541e-01  -1.4494103948282153e-01  -1.4707585605275286e-01  -1.4922352374435865e-01  -1.5137230100130769e-01  -1.5374482034964820e-01  -1.5495262411436075e-01  -1.5853132795992936e-01  -1.5589783651108238e-01  -1.6088709458599448e-01  -1.5832274080195780e-01  -2.0354148435673933e-01  -1.8208439305535123e-01  -1.7550180125312492e-01  -1.7071246636623044e-01  -1.6747961050101445e-01  -1.6505379605923085e-01  -1.6323728246428101e-01  -1.6190712023759266e-01  -1.6110917569353322e-01  -1.6091487681811892e-01  -1.6132177762007663e-01  -1.6211427061077399e-01  -1.6248959764517928e-01  -1.6228483398650084e-01  -1.6161513439795497e-01  -1.6057115466261418e-01  -1.5919669896079280e-01  -1.5747689366913065e-01  -1.5539904196307724e-01  -1.5299224015275564e-01  -1.5027388468725877e-01  -1.4724800996311160e-01  -1.4392836618746965e-01  -1.4032606204860107e-01  -1.3645316464012236e-01  -1.3233002479309269e-01  -1.2796953782638434e-01  -1.2338408372333894e-01  -1.1859192692783153e-01  -1.1361185685762641e-01  -1.0845443024756225e-01  -1.0314943712489071e-01  -9.7715001556716016e-02  -9.2166910843833078e-02  -8.6535735234867128e-02  -8.0839744446478276e-02  -7.5108181999510637e-02  -6.9363230825847236e-02  -6.3627304755576111e-02  -5.7931844780418372e-02  -5.2297545769606969e-02  -4.6750192940350217e-02  -3.5901848526993081e-02  -3.0610024915945569e-02  -2.5444127548197928e-02  -2.0438126162917049e-02  -1.5618834611326819e-02  -1.0988398179309744e-02  -6.5736694660797077e-03  -2.3799298364065320e-03  1.5442617518144405e-03  5.2226964173548588e-03  8.6548687452916179e-03  1.1819629789387741e-02  1.4719121404744955e-02  1.7360189344642597e-02  1.9746664829767103e-02  2.1883525680592389e-02  2.3786029161162174e-02  2.5454645127328163e-02  2.6903649489459034e-02  2.8163442266388641e-02  2.9222559483001814e-02  3.0111071506909531e-02  3.0842544961636360e-02  3.1425014214650035e-02  3.1879845430505503e-02  3.2211450828948066e-02  3.2450966231817341e-02  3.2588897990978707e-02  3.2646228314476451e-02  3.2627838447734626e-02  3.2541511944973185e-02  3.2396668550120293e-02  3.2202550291036275e-02  3.1963236498956334e-02  3.1679425493848765e-02  3.1358292886262622e-02  3.1000482148522152e-02  3.0608686748299602e-02  3.0183937015207885e-02  2.9726601474723901e-02  2.9237011859163147e-02  2.8715043557576272e-02  2.8159405157226810e-02  2.7570374064310007e-02  2.6945392405547049e-02  2.6283112611496771e-02  2.5584646914205606e-02  2.4845124010661874e-02  2.4062570235348409e-02  2.3241389043827280e-02  2.2372003206501862e-02  2.1461523587288672e-02  2.0499441968750896e-02  1.9494643338573769e-02  1.8439336658239897e-02  1.7329758337992753e-02  1.6176407337621133e-02  1.4965109286700657e-02  1.3707244851193937e-02  1.2396724149363870e-02  1.1032543816735020e-02  9.6146978662676932e-03  8.1453218709389447e-03  6.6275978778659655e-03  5.0521181054953559e-03  3.4364953711506392e-03  1.7645265278293941e-03  0.0000000000000000e+00  0.0000000000000000e+00  0.0000000000000000e+00  0.0000000000000000e+00  0.0000000000000000e+00  0.0000000000000000e+00  0.0000000000000000e+00  0.0000000000000000e+00  0.0000000000000000e+00  1.9141664745450577e-03  3.7009391001401482e-03  5.4599657520461404e-03  7.1659155615288617e-03  8.8225462889896054e-03  1.0428557673026334e-02  1.1983002369752161e-02  1.3484150851684485e-02  1.4929131467947495e-02  1.6315717591728611e-02  1.7639896660563845e-02  1.8899172793938029e-02  2.0088474980638739e-02  2.1204797589368704e-02  2.2243308581657798e-02  2.3197411244125200e-02  2.4066726889263878e-02  2.4840129157751557e-02  2.5512965202561654e-02  2.6079094913960276e-02  2.6531665609945975e-02  2.6864055122337582e-02  2.7070610781263996e-02  2.7140572864767034e-02  2.7072394685029109e-02  2.6854314886861155e-02  2.6484198722204991e-02  2.5950713595070250e-02  2.5248766622983667e-02  2.4375718469699457e-02  2.3320856689514467e-02  2.2078724444870117e-02  2.0664268336666146e-02  1.9063156599999829e-02  1.7249438109391665e-02  1.5263230677878492e-02  1.3081424130111071e-02  1.0704744354475477e-02  8.1346874647447911e-03  5.3788877810399503e-03  2.4284609137522352e-03  -7.0274729534592847e-04  -4.0231662590250513e-03  -7.5221576044811793e-03  -1.1210887670698702e-02  -1.5073397332763541e-02  -1.9110916116024446e-02  -2.3314201423545729e-02  -2.7686472727126720e-02  -3.2213543984012369e-02  -3.6892451154591957e-02  -4.1711535687195746e-02  -4.6657171180250812e-02  -5.1720521720725027e-02  -5.6885731269592725e-02  -6.2128966661784912e-02  -6.7390826874061949e-02  -7.2718035943901305e-02  -7.8025175253085818e-02  -8.3252667136235220e-02  -8.8404661632663348e-02  -9.3409603352712922e-02  -9.8248377772908485e-02  -1.0281518712345168e-01  -1.0710367702860527e-01  -1.1100469000961118e-01  -1.1450642127125206e-01  -1.1749854596085062e-01  -1.1998556334422400e-01  -1.2183552576848779e-01  -1.2306404539642890e-01  -1.2359964197498956e-01  -1.2331478079616991e-01  -1.2238122641813697e-01  -1.2066524224147046e-01  -1.1817571248436570e-01  -1.1503094831777344e-01  -1.1125535429524373e-01  -1.0697498004859188e-01  -1.0225924378444648e-01  -9.7108825040363778e-02  -9.1659608063538844e-02  -8.5950847119201992e-02  -8.0074729057463587e-02  -7.4035857335547420e-02  -6.7862192721953207e-02  -6.1605842710325147e-02  -5.5279819578416177e-02  -4.8895224822721316e-02  -4.2475506053560902e-02  -3.6025756560400635e-02  -2.9564175220857768e-02  -2.3093666080854263e-02  -1.6616806299901841e-02  -1.0144934992971573e-02  -3.6792797093852668e-03  2.7789437663892362e-03  9.2262937157902344e-03  1.5659702252757566e-02  2.2078024916206553e-02  2.8480745680114720e-02  3.4866351898076214e-02  4.1234655648842378e-02  4.7584070437647639e-02  5.3914944754753266e-02  6.0226565135054061e-02  6.6518663947326487e-02  7.2791148079430892e-02  7.9043714420639649e-02  8.5276314829912547e-02  9.1488915879037375e-02  9.7681423624194325e-02  1.0385381337626655e-01  1.1000608647541413e-01  1.1613825523877695e-01  1.2225029984835831e-01  1.2834229095214528e-01  1.3441425017197145e-01  1.4046620716878094e-01  1.4649821634081062e-01  1.5251031335900189e-01  1.5850252240781226e-01  1.5850222814673537e-01  1.5850150960799445e-01  1.5850038175863720e-01  1.5849901183418694e-01  1.5849764049643392e-01  1.5849651028996292e-01  1.5849578696281372e-01  1.5849549375746699e-01  -1.5383295741625558e-01  -1.8658351470055598e-01  -1.5745895542505264e-01  -1.4390884296463319e-01  -1.3346037089544513e-01  -1.2298269554562143e-01  -1.1253652458597901e-01  -1.0176292766906607e-01  -9.0543669697701126e-02  -8.1494856611846384e-02  -7.1510803240093831e-02  -6.1673007782395414e-02  -5.1176555133531719e-02  -4.0104212669262472e-02  -2.8416484516315090e-02  -1.4198524663573087e-01  -1.2555209231612954e-01  -1.0594016124312641e-01  -8.3625563407310283e-02  -6.1047798857497775e-02  -3.8632822416745656e-02  -1.6996467559903980e-01  -1.2187270945162643e-01  -1.8415724134753810e-02  -1.3568682115697912e-03  1.2857588913100978e-02  -1.6695842026776905e-01  2.2772008443973254e-02  -1.6084259155804227e-02  2.8308322691703771e-02  -2.7542541208265374e-03  3.1428325835727598e-02  -1.1219359857603339e-01  -9.5196706755504054e-02  3.2499222254995602e-02  -7.4936743550553409e-02  1.1056570890913470e-02  -4.8785546446009576e-02  3.2211269466834037e-02  2.5916918302401393e-02  -1.5939972731093857e-01  3.1108036097577733e-02  -2.5268394973250109e-02  -1.2238588711878055e-01  4.1319580215973706e-02  2.9431025635096961e-02  -2.3055553582286307e-03  5.8817207051351073e-02  6.6210046946420424e-03  2.7193126552741909e-02  1.4272415581205299e-02  7.6108197036102970e-02  -1.1631089715753119e-01  2.4467158236278409e-02  1.9852250969536293e-02  -1.0450814808019933e-01  2.3855329098613050e-02  2.0960593176221398e-02  -8.8800999905989580e-02  9.6308304740873152e-02  1.1032538036426251e-01  -1.3032468104091978e-02  1.7853834252614519e-02  1.4163249256164566e-02  2.6146347136427172e-02  -7.1155364864450316e-02  2.7001620917695066e-02  -1.5027667397084021e-01  -4.6127450216255118e-02  2.6206150814820875e-02  1.2777715076950202e-01  -2.6367359287453616e-02  1.0295095165221105e-02  2.3565241500954369e-02  -6.7914191333523265e-03  1.9035973008972144e-02  2.0578925396984762e-02  5.0750129283588762e-02  1.6919729679060563e-02  6.9711192552790124e-02  8.8488608600278865e-02  1.2689993058897679e-02  1.2008860746563593e-01  1.6041244430600233e-03  1.5291904265052977e-01  -1.6210681430444213e-01  8.0901613948685964e-03  5.7178318504902109e-03  1.3789122288989936e-01  -1.7351292750801633e-01  -1.6145677461830979e-01  -1.1813904780393102e-01  -5.8350423908478402e-02  5.5087621123838604e-03  3.1341356379345375e-02  1.3823139219857719e-01  -3.9418950355591516e-02  -6.4041625173049344e-02  -8.5201010773739164e-02  -1.0430007305462467e-01  8.6370662133700635e-02  2.6864372408438548e-02  6.7197511798456191e-02  1.0073017516763394e-01  2.5089794149926216e-02  2.2799569833312369e-02  4.9495640259382793e-02  2.5826454737027629e-02  2.8394280028662216e-02  3.3958240851312181e-02  3.0336828122468514e-02  3.1744444067913304e-02  3.2485237613792503e-02  3.2197368203198094e-02  -2.8391610302147784e-02  1.8368692770959615e-02  3.0176791854512882e-02  2.5875246699124589e-02  3.9837585612178599e-03  1.8428121212947287e-02  6.5617001132522853e-03  -9.0195633902544273e-03  1.3382881107126259e-03  -9.9364845471400631e-03  -2.1870465375094610e-02  1.5325890023763697e-01  -3.4027608966952838e-02  -4.5710280722872906e-02  -5.6485953743539909e-02  -6.6831192709084886e-02  -7.6583025319336306e-02  -8.5830143793872951e-02  -1.4837772871391125e-01  -9.7235897463395213e-02  -1.0813914641414039e-01  -1.1877902169735799e-01  -1.3432867097208440e-01  -1.2933927444959209e-01  -9.5274810118757408e-02  -1.1564458203272074e-01  -7.3308042990717207e-02  -4.9834944810390899e-02  -1.3976430435607773e-01  -1.5876636111407200e-01  1.6821993482734777e-03  1.5276219489821899e-01  4.5096465280680207e-03  -1.6188559198001898e-01  1.5351084993946312e-01  1.3646920052853887e-03  1.4940653289869910e-01  -1.6185383097072445e-01  -1.6151554202121376e-01  -1.6105641179555774e-01  -1.6155651598567147e-01  -1.6107972011683130e-01  -1.6190792923030053e-01  -1.6125003817685257e-01  -1.6236271728703630e-01  -1.6153426341566648e-01  -1.6268493613756480e-01  -1.6173776695244507e-01  -1.6261191310614156e-01  -1.6146963140109283e-01  -1.6197982319444357e-01  -1.6070041422690265e-01  -1.6089223960008039e-01  -1.5943793447761725e-01  -1.5940780472852586e-01  -1.5778500017632632e-01  -1.5735647668176383e-01  -1.5543365010439550e-01  -1.5903037555047161e-01  -1.5596273422030693e-01  -1.5322549637365154e-01  -1.5629405072606506e-01  -1.5823446155457233e-01  -1.5352363377847641e-01  -1.5064695483981300e-01  -1.5086718833124321e-01  -1.4762795353681901e-01  -1.4773083203630658e-01  -1.4417330491900340e-01  -1.4419386404634779e-01  -1.4056591446912056e-01  -1.4025329108670853e-01  -1.3589866812375842e-01  -1.3569283423966005e-01  -1.3151763305707603e-01  -1.3089059090909985e-01  -1.2655642286714855e-01  -1.2569173542674483e-01  -1.2127095500474638e-01  -1.2018218763325521e-01  -1.1572244178282089e-01  -1.1437024069693130e-01  -1.0994077096792740e-01  -1.0828983119640240e-01  -1.0394118834667899e-01  -1.0200538620320847e-01  -9.7803189630332077e-02  -9.5530600527627782e-02  -9.1564270962789671e-02  -8.8838678159749440e-02  -1.5441107880525684e-01  -1.5615846418675330e-01  -8.5241238188436333e-02  -8.2094035724530681e-02  -7.8916167009323371e-02  -7.5775386110985193e-02  -7.2681797203264370e-02  -6.9194238691770674e-02  -6.6545024830823751e-02  -6.2734842121224710e-02  -1.4952633617457239e-01  -6.0619067789840060e-02  -5.6389022475138904e-02  -5.4604466872109840e-02  -5.0173392712296011e-02  -4.9002606312814195e-02  -4.4237608708437438e-02  -1.5153591697434074e-01  -1.5340601540421969e-01  -1.6311137719847249e-01  -4.3539715765390952e-02  -3.8495567523521713e-02  -3.8351545780370713e-02  -3.3034251828326089e-02  -3.3418789415164879e-02  -2.7885459964399766e-02  -1.5949865432071528e-01  -2.8759681490474989e-02  -2.3016906930065622e-02  -1.3985272553375089e-01  -2.4360128882377177e-02  -1.8475961631053976e-02  -2.0252083398998071e-02  -1.4255145088207015e-02  -1.6353809155302924e-02  -1.0345242817878077e-02  -1.6006724713156550e-01  -1.2644731061267508e-01  -1.2788372857149916e-02  -6.7474381078460972e-03  -1.4770774899677983e-01  -1.4884487601795396e-01  -1.4618897763979297e-01  -1.1061145639790039e-01  -9.4138677933122764e-03  -3.3016184010278902e-03  -6.3812978207701977e-03  -2.0847141875214538e-04  -3.5003225487395396e-03  2.4698919274913837e-03  -3.9306694458716755e-02  -5.3264858166560093e-04  -2.2398434676857051e-02  -5.8618840416338892e-02  -8.3154332525972846e-04  4.9250573860624642e-03  8.2185274534482509e-03  1.0519157553403709e-02  7.2217130356285386e-03  1.2594502639364144e-02  9.3873697010828008e-03  1.4531723050046597e-02  1.1342286601547782e-02  1.6219086586754326e-02  1.3132718510844322e-02  1.7773886903901949e-02  1.4817702207715144e-02  1.9140389640742893e-02  1.6278922853043592e-02  2.0389044569821574e-02  1.7739086557534936e-02  2.1629844554812021e-02  1.9043011694928006e-02  2.2649040043305080e-02  2.0271592222429777e-02  2.3535121504719907e-02  2.1254978772398733e-02  2.4342031003135943e-02  -7.8665895176931649e-02  -9.3610976190409340e-02  2.2260685462418234e-02  2.5023533838515428e-02  2.3214493448240309e-02  2.5671891337144148e-02  -1.4698638210514167e-01  -1.1222205250975012e-01  2.4064324441738102e-02  2.6207975805662035e-02  -1.2935016890945095e-01  -7.6290328215827666e-02  -1.4297054880765755e-01  -1.4367043553744507e-01  -1.5028976297718327e-01  -1.4398458581644677e-01  -1.4948454532824945e-01  -1.4356446479087803e-01  -1.4932504994967100e-01  -1.4259019684499011e-01  -1.4657115237555918e-01  -1.4061612975831639e-01  -1.4467982329550400e-01  -1.3825817320998418e-01  -1.4079224304655336e-01  -1.3526253060903057e-01  -1.3711266986408413e-01  -1.3209339847391199e-01  -1.3332689401107617e-01  -1.2866802055852672e-01  -1.2949159395556728e-01  -1.2516596525083595e-01  -1.2562436655641429e-01  -1.2157035862848838e-01  -1.2177518164805499e-01  -1.1795080630412318e-01  -1.1793790043869563e-01  -1.1435581537807289e-01  -1.1379523834114157e-01  -1.1048170463778721e-01  -1.1069079659412003e-01  -1.0707933083241543e-01  -1.0679753926301996e-01  -1.0346956091684976e-01  -1.0320505058892747e-01  -9.9903767991798759e-02  -9.9383855299262372e-02  -9.6277973779092890e-02  -1.3005330276337648e-01  -1.0682765786100094e-01  -1.2067968107942453e-01  -9.5695273781138748e-02  -9.2573969026529326e-02  -9.2923156043996036e-02  -8.9389035177478413e-02  -8.8829546593656952e-02  -8.5773460523403663e-02  -8.5040548396321608e-02  -8.2103583298279506e-02  -8.1267181567321586e-02  -7.8377635491540101e-02  -8.5598560947594035e-02  -1.5454646215737752e-01  -1.4612865509435266e-01  -7.7554946295320212e-02  -7.4594680818293901e-02  -7.5377613757722450e-02  -7.1598949709901341e-02  -7.0787872819513209e-02  -6.7838902333549805e-02  -6.6924806740583195e-02  -6.4054254210426542e-02  -1.3795222078467717e-01  -6.8388498873690265e-02  -6.3085223882207511e-02  -6.0283964744779074e-02  -1.2959336368162272e-01  -5.9359808227356078e-02  -5.6458474527689650e-02  -5.7656797362250191e-02  -5.3509394930069003e-02  -5.2523947974274413e-02  -4.9461854766428774e-02  -5.0407193857074102e-02  -4.6360383719454064e-02  -4.5432228324284001e-02  -4.2322684892007266e-02  -4.1387426121686742e-02  -3.8192074277562743e-02  -3.9153161061017877e-02  -3.5024949483235042e-02  -3.4035771258931188e-02  -3.0892756240418991e-02  -2.9943745682418164e-02  -2.6778837369653218e-02  -1.3852462553751163e-01  -1.0645334674404890e-01  -1.2138878022913262e-01  -2.5924866516385207e-02  -2.2697381702316138e-02  -2.3564019023646025e-02  -1.9328625911371636e-02  -1.8468231208191681e-02  -1.5099496400454099e-02  -2.0194180920906364e-02  2.4740007729322468e-02  2.6655465701601905e-02  2.5355959383059623e-02  2.7035212786965378e-02  2.5906360740520384e-02  2.7342667493233493e-02  -8.8129020260401841e-02  -4.8537390392970878e-02  -1.6293104885269810e-01  -1.4208107560533562e-02  -1.0906096820440740e-02  -9.8687831650997371e-02  2.2168834863943596e-02  2.6411966402662818e-02  1.3279144456187412e-02  2.6365328963967326e-02  2.7569019128767833e-02  2.8633172756673934e-02  2.8639481967244255e-02  2.7720433545179338e-02  2.8593020141594410e-02  2.7804451506384099e-02  2.8487300861449159e-02  2.7805755663194695e-02  2.8314135329307717e-02  2.7734702390513150e-02  2.8082767278052350e-02  2.7579687694442273e-02  2.7779581709588816e-02  2.7348283838610484e-02  2.7416781509950982e-02  2.7044159198601404e-02  2.6992380079668758e-02  2.6670631429557140e-02  2.6508824376519961e-02  2.6217289478996184e-02  2.5950825442827698e-02  2.5682108217383121e-02  2.5341475724872425e-02  2.5069788927961158e-02  2.4645123810120715e-02  2.4397550383308413e-02  2.3908674047756106e-02  2.3631465265629755e-02  2.3086533256802693e-02  2.2808975347398657e-02  2.2216818300283898e-02  2.8245071428600877e-02  -3.6053372972594616e-02  -6.9909709698372291e-02  -9.8931040556617059e-03  -6.6035507125878001e-03  -7.6076317597597249e-03  -3.1533986592452070e-03  -4.2019023464191872e-03  3.5601999626775070e-04  1.2839122669756075e-03  4.8132593185117971e-03  5.8605399132371869e-03  9.3625358300543499e-03  8.4126706643083849e-03  1.2950219948585770e-02  1.3757695071386826e-02  1.7452399217831979e-02  1.8245616682193842