<?xml version="1.0"?>
<VTKFile type="UnstructuredGrid"  version="0.1"  >
<UnstructuredGrid>
<Piece  NumberOfPoints="2886" NumberOfCells="5412">
<Points>
<DataArray  type="Float64"  NumberOfComponents="3"  format="ascii">0 0.1 0  0.98 0.1 0  1 0.1 0  1 0 0  1.5 0 0  3 0 0  3 0.3 0  0 0.3 0  0.01975375321854102 0.1 0  0.03918897458218897 0.1 0  0.05831079002627837 0.1 0  0.07712425666319796 0.1 0  0.0956343475259058 0.1 0  0.1138459546796227 0.1 0  0.1317638870668193 0.1 0  0.1493928840275937 0.1 0  0.1667376092280033 0.1 0  0.1838026357802664 0.1 0  0.2005924801287244 0.1 0  0.2171115811543574 0.1 0  0.2333643037107681 0.1 0  0.2493549444060462 0.1 0  0.2650877293306821 0.1 0  0.2805668058011438 0.1 0  0.2957962848620976 0.1 0  0.3107801766802674 0.1 0  0.3255224447361181 0.1 0  0.3400269848175519 0.1 0  0.3542976327080778 0.1 0  0.3683381609158136 0.1 0  0.3821522744564845 0.1 0  0.3957436316838916 0.1 0  0.4091158196437086 0.1 0  0.4222723742184605 0.1 0  0.4352167733293057 0.1 0  0.4479524348643424 0.1 0  0.4604827295467524 0.1 0  0.4728109659990664 0.1 0  0.4849404035409129 0.1 0  0.4968742471455402 0.1 0  0.508615651843175 0.1 0  0.520167721130924 0.1 0  0.5315335063628542 0.1 0  0.5427160117228604 0.1 0  0.5537181940261912 0.1 0  0.564542961924507 0.1 0  0.575193173270606 0.1 0  0.5856716438765114 0.1 0  0.5959811458006617 0.1 0  0.6061243988680743 0.1 0  0.6161040893285659 0.1 0  0.6259228503970299 0.1 0  0.6355832809287655 0.1 0  0.6450879281079505 0.1 0  0.6544393102991295 0.1 0  0.663639896558931 0.1 0  0.6726921201956305 0.1 0  0.6815983691630338 0.1 0  0.6903610031396646 0.1 0  0.6989823343332418 0.1 0  0.7074646404270378 0.1 0  0.7158101645005117 0.1 0  0.7240211149852543 0.1 0  0.7320996585612525 0.1 0  0.7400479319727645 0.1 0  0.7478680336617921 0.1 0  0.755562036504958 0.1 0  0.7631319665092091 0.1 0  0.7705798279317605 0.1 0  0.777907588066146 0.1 0  0.7851171851013118 0.1 0  0.7922105226004981 0.1 0  0.7991894774550319 0.1 0  0.8060558928136696 0.1 0  0.812811583201334 0.1 0  0.8194583352091183 0.1 0  0.8259979035038147 0.1 0  0.8324320194413813 0.1 0  0.8387623808293405 0.1 0  0.8449906627004957 0.1 0  0.8511185094880469 0.1 0  0.8571475426008311 0.1 0  0.8630793533568246 0.1 0  0.8689155114558531 0.1 0  0.8746575581239063 0.1 0  0.8803070109173519 0.1 0  0.885865363938836 0.1 0  0.8913340851680313 0.1 0  0.8967146206523592 0.1 0  0.9020083930695622 0.1 0  0.9072167995950768 0.1 0  0.9123412183131177 0.1 0  0.9173830029719022 0.1 0  0.9223434865647732 0.1 0  0.9272239785872722 0.1 0  0.9320257720706087 0.1 0  0.9367501330378739 0.1 0  0.9413983102716995 0.1 0  0.9459715351562933 0.1 0  0.9504710127113115 0.1 0  0.9548979346500661 0.1 0  0.9592534708344373 0.1 0  0.9635387708980176 0.1 0  0.9677549682252325 0.1 0  0.971903177251235 0.1 0  0.9759844952956497 0.1 0  0.9840000000000086 0.1 0  0.987999999999974 0.1 0  0.9919999999999393 0.1 0  0.9959999999999913 0.1 0  1 0.09591793123533533 0  1 0.09133596463859224 0  1 0.08619288104391448 0  1 0.08041996484521211 0  1 0.07394008421771697 0  1 0.06666666567302955 0  1 0.05850252932209174 0  1 0.04933859630113544 0  1 0.03905242821848202 0  1 0.02750659386753798 0  1 0.01454683679239736 0  1.015625 0 0  1.03125 0 0  1.046875 0 0  1.0625 0 0  1.078125 0 0  1.09375 0 0  1.109375 0 0  1.125 0 0  1.140625 0 0  1.15625 0 0  1.171875 0 0  1.1875 0 0  1.203125 0 0  1.21875 0 0  1.234375 0 0  1.25 0 0  1.265625 0 0  1.28125 0 0  1.296875 0 0  1.3125 0 0  1.328125 0 0  1.34375 0 0  1.359375 0 0  1.375 0 0  1.390625 0 0  1.40625 0 0  1.421875 0 0  1.4375 0 0  1.453125 0 0  1.46875 0 0  1.484375 0 0  1.515920751924515 0 0  1.531989369316721 0 0  1.54820720925872 0 0  1.564575665560501 0 0  1.581096138674279 0 0  1.597770029901263 0 0  1.614598783332311 0 0  1.631583831055205 0 0  1.64872661129721 0 0  1.666028606716533 0 0  1.683491276608443 0 0  1.701116134125304 0 0  1.718904673324128 0 0  1.736858414799339 0 0  1.754978895814663 0 0  1.773267661782904 0 0  1.791726281103402 0 0  1.810356325314689 0 0  1.8291593848892 0 0  1.848137076690385 0 0  1.867291007717254 0 0  1.886622833871288 0 0  1.90613418642363 0 0  1.925826753299799 0 0  1.945702199101513 0 0  1.96576223584749 0 0  1.986008569283268 0 0  2.006442931928877 0 0  2.02706707547783 0 0  2.047882750887917 0 0  2.06889175187935 0 0  2.090095860038271 0 0  2.111496891648636 0 0  2.133096679109554 0 0  2.154897066851056 0 0  2.176899916687499 0 0  2.199107102752146 0 0  2.22152053937028 0 0  2.244142122958061 0 0  2.266973806444078 0 0  2.290017523268154 0 0  2.313275249499252 0 0  2.336748971745516 0 0  2.360440702338606 0 0  2.384352453384031 0 0  2.408486280477412 0 0  2.432844240041185 0 0  2.457428414757088 0 0  2.482240901796653 0 0  2.507283830121838 0 0  2.532559332080812 0 0  2.558069568787417 0 0  2.583816724966441 0 0  2.60980299606584 0 0  2.636030600971886 0 0  2.662501790984011 0 0  2.689218818279327 0 0  2.716183964547616 0 0  2.743399548861297 0 0  2.77086788244719 0 0  2.798591312896326 0 0  2.826572223178268 0 0  2.854812990138617 0 0  2.883316031690714 0 0  2.912083780657189 0 0  2.941118704633482 0 0  2.970423276998917 0 0  3 0.02999999999994495 0  3 0.05999999999987042 0  3 0.089999999999783 0  3 0.119999999999701 0  3 0.149999999999619 0  3 0.179999999999692 0  3 0.2099999999997737 0  3 0.2399999999998511 0  3 0.2699999999999185 0  2.970138294777171 0.3 0  2.940375666438236 0.3 0  2.910711782853056 0.3 0  2.881146331305122 0.3 0  2.851678975030285 0.3 0  2.822309388626621 0.3 0  2.793037250095074 0.3 0  2.76386223529133 0.3 0  2.734784017903872 0.3 0  2.705802289276642 0.3 0  2.676916713794697 0.3 0  2.648126987654635 0.3 0  2.619432780406184 0.3 0  2.590833779385199 0.3 0  2.562329669847737 0.3 0  2.533920134950189 0.3 0  2.505604855727852 0.3 0  2.477383539822502 0.3 0  2.449255847639465 0.3 0  2.421221492569094 0.3 0  2.393280152486815 0.3 0  2.36543151914496 0.3 0  2.337675285481809 0.3 0  2.310011142385583 0.3 0  2.282438797441587 0.3 0  2.254957931061538 0.3 0  2.227568248063605 0.3 0  2.200269436651085 0.3 0  2.173061204949961 0.3 0  2.145943251515011 0.3 0  2.118915272469994 0.3 0  2.091976978084957 0.3 0  2.065128060700849 0.3 0  2.038368218849433 0.3 0  2.01169717777258 0.3 0  1.985114624111908 0.3 0  1.958620267850966 0.3 0  1.93221382054972 0.3 0  1.905894991850698 0.3 0  1.879663489459713 0.3 0  1.853519019126419 0.3 0  1.827461291053897 0.3 0  1.801490031354372 0.3 0  1.775604937580312 0.3 0  1.74980572560258 0.3 0  1.724092118631866 0.3 0  1.698463829173586 0.3 0  1.672920575782554 0.3 0  1.647462076974085 0.3 0  1.622088043536933 0.3 0  1.5967981978949 0.3 0  1.571592267767068 0.3 0  1.546469970305736 0.3 0  1.521431023814044 0.3 0  1.496475156230927 0.3 0  1.471602093687753 0.3 0  1.446811560490646 0.3 0  1.422103279101731 0.3 0  1.397476971708191 0.3 0  1.37293238939876 0.3 0  1.348469231419202 0.3 0  1.324087248732772 0.3 0  1.299786165921677 0.3 0  1.275565710847046 0.3 0  1.251425617644257 0.3 0  1.227365618676339 0.3 0  1.203385446174014 0.3 0  1.179484853067473 0.3 0  1.155663548773374 0.3 0  1.131921292279077 0.3 0  1.108257802159295 0.3 0  1.084672829009693 0.3 0  1.061166115303374 0.3 0  1.037737392995421 0.3 0  1.01438640299116 0.3 0  0.991112899770314 0.3 0  0.9679166155523955 0.3 0  0.944797284182564 0.3 0  0.921754678526042 0.3 0  0.8987885143602501 0.3 0  0.8758985548820624 0.3 0  0.8530845484099929 0.3 0  0.8303462351786988 0.3 0  0.8076833651172373 0.3 0  0.7850956864865304 0.3 0  0.7625829601354557 0.3 0  0.7401449314598274 0.3 0  0.717781337993959 0.3 0  0.6954919649675473 0.3 0  0.6732765357561226 0.3 0  0.6511348120768439 0.3 0  0.6290665642016573 0.3 0  0.6070715355430467 0.3 0  0.5851494825775325 0.3 0  0.5633001690203812 0.3 0  0.5415233562273221 0.3 0  0.5198187909431873 0.3 0  0.4981862401387795 0.3 0  0.4766254686134248 0.3 0  0.4551362360485234 0.3 0  0.4337182975262159 0.3 0  0.4123714223228037 0.3 0  0.3910953802377493 0.3 0  0.3698899313205595 0.3 0  0.3487548463710963 0.3 0  0.3276898864081783 0.3 0  0.3066948129116018 0.3 0  0.2857694003037476 0.3 0  0.2649134227095047 0.3 0  0.2441266417321288 0.3 0  0.2234088223399122 0.3 0  0.2027597568977288 0.3 0  0.1821792020676698 0.3 0  0.1616669305402443 0.3 0  0.1412227158799362 0.3 0  0.12084633013886 0.3 0  0.1005375673448281 0.3 0  0.08029618164595353 0.3 0  0.06012194778526769 0.3 0  0.04001466495039718 0.3 0  0.01997408913631205 0.3 0  0 0.2800000000000553 0  0 0.2600000000001105 0  0 0.2400000000001658 0  0 0.2200000000002211 0  0 0.2000000000002764 0  0 0.1800000000002244 0  0 0.1600000000001691 0  0 0.140000000000115 0  0 0.1200000000000564 0  1.13346801534201 0.01255848438672509 0  1.003577645172735 0.09351054173913405 0  0.9777559943702486 0.1034978156913738 0  0.9524533750752109 0.1040889939962738 0  0.9296242411226409 0.1041520033606139 0  0.9046110503652111 0.104409422380137 0  0.8777709649694228 0.1053360318797398 0  0.8483859145648608 0.1061007868330701 0  0.8162363822948977 0.1052777104363292 0  0.7893110024210437 0.1060761643971561 0  0.7587949382612539 0.1067265405088633 0  0.7280603867732535 0.1069398153264939 0  0.6947001989413015 0.1075609887579097 0  0.6590363283767549 0.1076715322596598 0  0.6210028614493155 0.1072970410408442 0  1.1953125 0.01353164693413185 0  1.258193991486058 0.01269648635163345 0  1.3201967268638 0.01407907077719561 0  1.383538555392096 0.01434101079053473 0  1.445312500000001 0.01303671693628424 0  1.508925448095738 0.01398525724792267 0  0.9939176689634008 0.1034638089837981 0  1.120967497222226 0.2796788492172345 0  1.572835902117391 0.01424132418857359 0  1.637573277451887 0.01212536916586023 0  1.709730776795181 0.01466855431023635 0  1.005631976950563 0.07074019818158772 0  1.784944696816299 0.01454708406461822 0  0.5805605730631225 0.1101465090472147 0  1.855621181165637 0.01550931272897607 0  0.5366111276616774 0.1096761308243709 0  1.935200147913231 0.01760344159641829 0  1.214922267975168 0.2799787705802257 0  1.31178773425331 0.2792
[...]
<PointData  Scalars="pressure"> 
<DataArray  type="Float64"  Name="pressure"  format="ascii">1.5711416052088653e-01  -1.6594456763235846e-01  -2.1505270088302880e-01  -1.6118672029486619e-01  -4.0909780651730565e-02  0.0000000000000000e+00  0.0000000000000000e+00  1.5712144754140786e-01  1.5118803834072395e-01  1.4535740443024664e-01  1.3962069163024932e-01  1.3397637505464441e-01  1.2842294099824519e-01  1.2295890999790295e-01  1.1758284755645758e-01  1.1229328251746896e-01  1.0708881932367000e-01  1.0196806932715571e-01  9.6929626586243919e-02  9.1972141493178755e-02  8.7094299550379353e-02  8.2294737039411231e-02  7.7572155546157276e-02  7.2925340952919096e-02  6.8352895530736160e-02  6.3853626589365470e-02  5.9426291633327320e-02  5.5069589287790356e-02  5.0782355082938054e-02  4.6563460076703256e-02  4.2411551490492812e-02  3.8325549553156729e-02  3.4304164659894901e-02  3.0346297513265823e-02  2.6450905096213177e-02  2.2616713958005494e-02  1.8842543055604021e-02  1.5127344157166473e-02  1.1469985044766266e-02  7.8692702270744576e-03  4.3242059365899517e-03  8.3355470372509927e-04  -2.6037063611509302e-03  -5.9887580321616096e-03  -9.3226775837156779e-03  -1.2606141971666046e-02  -1.5840986250026917e-02  -1.9027828360157852e-02  -2.2167781485122762e-02  -2.5262142057549324e-02  -2.8311934931389081e-02  -3.1317595191266825e-02  -3.4281210868505677e-02  -3.7203262965876879e-02  -4.0084885065687012e-02  -4.2927224891624739e-02  -4.5731285371375274e-02  -4.8498126569629492e-02  -5.1228947211261554e-02  -5.3924694699232972e-02  -5.6586348053733006e-02  -5.9214873274247723e-02  -6.1811878737985590e-02  -6.4377748726745690e-02  -6.6913778189134188e-02  -6.9420634215986418e-02  -7.1900376928540524e-02  -7.4353452556803160e-02  -7.6780093591979834e-02  -7.9182084823539209e-02  -8.1561041992643746e-02  -8.3916651792460870e-02  -8.6251032767590344e-02  -8.8564936032781150e-02  -9.0858645503086366e-02  -9.3133795273906597e-02  -9.5391310450918823e-02  -9.7632146375241480e-02  -9.9858107546513003e-02  -1.0206928393907662e-01  -1.0426618157826260e-01  -1.0644946443824416e-01  -1.0862272475432388e-01  -1.1078503475224304e-01  -1.1293710908218030e-01  -1.1508091321205972e-01  -1.1721687455772815e-01  -1.1934600685531678e-01  -1.2146948107638825e-01  -1.2358929189170996e-01  -1.2570594968304047e-01  -1.2781974211261443e-01  -1.2993318354388453e-01  -1.3204726506681636e-01  -1.3416323423696216e-01  -1.3628261256769136e-01  -1.3840677676989546e-01  -1.4053756539558465e-01  -1.4267691474677938e-01  -1.4482701970450845e-01  -1.4699034162882113e-01  -1.4916855385543548e-01  -1.5136489204136705e-01  -1.5357174753342118e-01  -1.5595495136100093e-01  -1.5749264574430522e-01  -1.6146905387671273e-01  -1.6024770522607454e-01  -1.6499135678222282e-01  -1.6176321870214000e-01  -2.0281186602051107e-01  -1.8155454691196807e-01  -1.7500014793279092e-01  -1.7022313741084313e-01  -1.6699484858434649e-01  -1.6457104037871517e-01  -1.6275507754026053e-01  -1.6142432886044403e-01  -1.6062514574803291e-01  -1.6042924773737585e-01  -1.6083493589409589e-01  -1.6162715254445933e-01  -1.6200131976718665e-01  -1.6179491116787856e-01  -1.6112295915726937e-01  -1.6007599709199566e-01  -1.5869778236061277e-01  -1.5697342172166298e-01  -1.5489022440308817e-01  -1.5247740868054413e-01  -1.4975252120316285e-01  -1.4671974309498148e-01  -1.4339301755486669e-01  -1.3978368007625325e-01  -1.3590401443565611e-01  -1.3177460740338884e-01  -1.2740860832292183e-01  -1.2281864737050514e-01  -1.1802322217041439e-01  -1.1304134368731415e-01  -1.0788390937645315e-01  -1.0258070147110773e-01  -9.7150161903256413e-02  -9.1608211644938903e-02  -8.5985477000753305e-02  -8.0300274511409295e-02  -7.4581944345970860e-02  -6.8852637955684526e-02  -6.3134676971566495e-02  -5.7459370269981637e-02  -5.1847304288744039e-02  -4.6324060488337634e-02  -3.5529146092582307e-02  -3.0266325663572725e-02  -2.5130686960705004e-02  -2.0155718358062315e-02  -1.5367764546850888e-02  -1.0769098127840743e-02  -6.3857049457826326e-03  -2.2227057831183368e-03  1.6717216568257125e-03  5.3214462945380906e-03  8.7264468218746713e-03  1.1865809902053093e-02  1.4741795370254041e-02  1.7361431680502328e-02  1.9728656108003440e-02  2.1848484772343302e-02  2.3736182616038652e-02  2.5392294916143563e-02  2.6830890248302691e-02  2.8082300776387129e-02  2.9135032029962333e-02  3.0018902053549300e-02  3.0747357915125804e-02  3.1328271211394261e-02  3.1782813292814883e-02  3.2115197760701895e-02  3.2356404551416196e-02  3.2496799672866748e-02  3.2557172993684373e-02  3.2542300388969013e-02  3.2459826078739581e-02  3.2319033549330412e-02  3.2129065232712480e-02  3.1893924175834691e-02  3.1614233608135478e-02  3.1297109938067363e-02  3.0943145545457962e-02  3.0555008949921147e-02  3.0133698703681221e-02  2.9679570102691125e-02  2.9192951035751771e-02  2.8673715439725987e-02  2.8120573951263744e-02  2.7533826544319236e-02  2.6910915148997874e-02  2.6250512481846119e-02  2.5553771505614501e-02  2.4815822315983609e-02  2.4034701258263028e-02  2.3214880389139023e-02  2.2346752727298552e-02  2.1437503255004757e-02  2.0476589609630624e-02  1.9472973769007616e-02  1.8418848589018207e-02  1.7310470244275233e-02  1.6158371711390777e-02  1.4948359201009983e-02  1.3691860034115209e-02  1.2382774357889387e-02  1.1020112818993533e-02  9.6038576746290388e-03  8.1361465145018911e-03  6.6201724305534225e-03  5.0465496247790826e-03  3.4327952965195470e-03  1.7627805393421233e-03  0.0000000000000000e+00  0.0000000000000000e+00  0.0000000000000000e+00  0.0000000000000000e+00  0.0000000000000000e+00  0.0000000000000000e+00  0.0000000000000000e+00  0.0000000000000000e+00  0.0000000000000000e+00  1.9097720171247087e-03  3.6928872700239274e-03  5.4482582287629913e-03  7.1507520918177242e-03  8.8041096738962193e-03  1.0407023431852009e-02  1.1958544063702826e-02  1.3456955585308118e-02  1.4899407053326850e-02  1.6283683531614294e-02  1.7605802233641627e-02  1.8863286319646868e-02  2.0051099227034526e-02  2.1166264609327648e-02  2.2203992098006289e-02  2.3157708347216824e-02  2.4027070112577511e-02  2.4801002424077595e-02  2.5474887362309646e-02  2.6042618456342821e-02  2.6497375277962868e-02  2.6832565931774913e-02  2.7042570366890287e-02  2.7116619371815778e-02  2.7053234344480707e-02  2.6840599999464015e-02  2.6476592539322184e-02  2.5949871006129808e-02  2.5255318466702578e-02  2.4390248849378640e-02  2.3343900651224013e-02  2.2110754407837004e-02  2.0705724559592426e-02  1.9114363432460160e-02  1.7310728088109587e-02  1.5334706156769252e-02  1.3163300821943863e-02  1.0797057234448074e-02  8.2374289487600130e-03  5.4920371398998113e-03  2.5519031523255640e-03  -5.6913893708519455e-04  -3.8795151735938715e-03  -7.3686355151912058e-03  -1.1047645467981686e-02  -1.4900575788586612e-02  -1.8928681137296285e-02  -2.3122725300820178e-02  -2.7485933634242850e-02  -3.2004144778431755e-02  -3.6674459770052119e-02  -4.1485306007628640e-02  -4.6423228884606843e-02  -5.1479530807701762e-02  -5.6638497869934828e-02  -6.1876670644694480e-02  -6.7135485791762581e-02  -7.2461168796797967e-02  -7.7769239661634973e-02  -8.3001236091320707e-02  -8.8161352011760591e-02  -9.3178916784602064e-02  -9.8035733482976561e-02  -1.0262689491674540e-01  -1.0694683177274945e-01  -1.1088765931951979e-01  -1.1443791385800758e-01  -1.1748859118876211e-01  -1.2004422851235350e-01  -1.2197346981167663e-01  -1.2329151461334867e-01  -1.2392563809755347e-01  -1.2374602046603203e-01  -1.2292274834454221e-01  -1.2131663304436835e-01  -1.1893306177909037e-01  -1.1588723568767521e-01  -1.1220015463461827e-01  -1.0799780143803234e-01  -1.0334913295520454e-01  -9.8253435185459564e-02  -9.2849592197307762e-02  -8.7177431489074586e-02  -8.1331928227796071e-02  -7.5317632021146594e-02  -6.9163344054950796e-02  -6.2922890143123439e-02  -5.6609666999538427e-02  -5.0235159799476813e-02  -4.3823603335594902e-02  -3.7380258159198772e-02  -3.0923950106856092e-02  -2.4457674722114870e-02  -1.7984102225443898e-02  -1.1514959276200287e-02  -5.0515129933285064e-03  1.4049746431377258e-03  7.8509447963066459e-03  1.4283222231799146e-02  2.0700624900005678e-02  2.7102615256449129e-02  3.3487628739373151e-02  3.9855467933901365e-02  4.6204492871028451e-02  5.2535060208312973e-02  5.8846431418193790e-02  6.5138327262356424e-02  7.1410649684453653e-02  7.7663083304690156e-02  8.3895576341561529e-02  9.0108091838709672e-02  9.6300530837304707e-02  1.0247286555348509e-01  1.0862509514095145e-01  1.1475723015772947e-01  1.2086924799622438e-01  1.2696121958415144e-01  1.3303316485679018e-01  1.3908511231117651e-01  1.4511711613869527e-01  1.5112921085343906e-01  1.5712141936314422e-01  1.5712111638957693e-01  1.5712037664383965e-01  1.5711921555535510e-01  1.5711780528303285e-01  1.5711639355592485e-01  1.5711523004089428e-01  1.5711448536509681e-01  1.5711418347766645e-01  -1.5332142382631878e-01  -1.8597266894420716e-01  -1.5971262003588382e-01  -1.4594514503653480e-01  -1.3532759666963551e-01  -1.2472671403681855e-01  -1.1418834916464607e-01  -1.0334267665672620e-01  -9.2067205494255497e-02  -8.2984358071861719e-02  -7.2971619205852156e-02  -6.3112692427662237e-02  -5.2599670837693110e-02  -4.1514771457676403e-02  -2.9817771360970809e-02  -1.4144758752620210e-01  -1.2499030585635776e-01  -1.0537222839822184e-01  -8.3082672014976613e-02  -6.0565904500606761e-02  -3.8247740783202526e-02  -1.7247723241999474e-01  -1.2204861376406903e-01  -1.8147992159989825e-02  -1.2085859662595488e-03  1.2894437962581370e-02  -1.6646893829851428e-01  2.2729626218997389e-02  -1.7478929468083514e-02  2.8226448251602962e-02  -4.1441505468296043e-03  3.1332682172904337e-02  -1.1210314770845835e-01  -9.4979114661648059e-02  3.2409769997833161e-02  -7.4684336254736375e-02  9.6698517047675500e-03  -4.8551838414971092e-02  3.2135723337000037e-02  2.4532331538263993e-02  -1.5890277364022221e-01  3.1048693998205788e-02  -2.5074940425482611e-02  -1.2287466709586144e-01  3.9936344522269920e-02  2.9385204493624733e-02  -2.1681384535242095e-03  5.7434863840728219e-02  6.7287643644883873e-03  2.7157384065047696e-02  1.4348106146529656e-02  7.4726348435247628e-02  -1.1711220255529581e-01  2.4438122211264006e-02  1.9898246585741967e-02  -1.0556066011458297e-01  2.3873648733211378e-02  2.0936830227101150e-02  -9.0007457398021934e-02  9.4926764954170642e-02  1.0894395698709854e-01  -1.2866150915048327e-02  1.7833685738208187e-02  1.4147141424021112e-02  2.6142255002654161e-02  -7.2445299076093039e-02  2.6975883086762929e-02  -1.5244703626418821e-01  -4.7470448496471383e-02  2.6171314820212954e-02  1.2639580532153832e-01  -2.7729015087692009e-02  1.0283270320532653e-02  2.3526087199544420e-02  -8.1624867185093875e-03  1.7659049585207302e-02  2.0541415595414562e-02  4.9370415594724465e-02  1.6887042806143889e-02  6.8330780361464380e-02  8.7107830842397982e-02  1.2664472497471158e-02  1.1870756684298088e-01  1.6012750484079772e-03  1.5153785476571024e-01  -1.6162188884096060e-01  8.0733597010484194e-03  5.7112922038374311e-03  1.3651013288394170e-01  -1.7300278025964033e-01  -1.6096611037808142e-01  -1.1816242497714324e-01  -5.9673478776902773e-02  4.1342689901602324e-03  2.9963000139804342e-02  1.3685006947455250e-01  -3.9199245651668164e-02  -6.3792208053195798e-02  -8.4957345317078312e-02  -1.0413023868412782e-01  8.4988997250479495e-02  2.6848418941313044e-02  6.5815443519240110e-02  9.9349258539998681e-02  2.5051738695936895e-02  2.2773310247709136e-02  4.8112885557078697e-02  2.5794569116361826e-02  2.8353875842030207e-02  3.2574442174130337e-02  3.0284675302293854e-02  3.1677155879959534e-02  3.2401522354914752e-02  3.2103087823320581e-02  -2.8062463601675858e-02  1.6983151448042997e-02  3.0084883441437279e-02  2.5809641123513631e-02  2.5955825857472709e-03  1.8420070772337611e-02  6.6488247598629384e-03  -8.8156035534153986e-03  1.3364474206943192e-03  -1.1328689149777525e-02  -2.3267911225293952e-02  1.5187763452727607e-01  -3.5432961881394838e-02  -4.7126661701273415e-02  -5.7916795716215073e-02  -6.8281241468911610e-02  -7.8057409387449248e-02  -8.7334928946691523e-02  -1.4785335808670347e-01  -9.8790830298370089e-02  -1.0975882462464888e-01  -1.2048284935979793e-01  -1.3377776386468659e-01  -1.3115350916678295e-01  -9.4714412674846524e-02  -1.1507646015197813e-01  -7.2788548653285823e-02  -4.9397029027259419e-02  -1.4172606471812688e-01  -1.6216500666184125e-01  1.6787032003547275e-03  1.5138107304623627e-01  4.5000960316235929e-03  -1.6139799206697111e-01  1.5212954270206577e-01  1.3631373976676091e-03  1.4802543177184818e-01  -1.6136498676804634e-01  -1.6102632035449935e-01  -1.6056545387031934e-01  -1.6106687092113806e-01  -1.6058838279219029e-01  -1.6141746599542095e-01  -1.6075773284047037e-01  -1.6187076149359172e-01  -1.6104049453968353e-01  -1.6219087853054209e-01  -1.6124189638260655e-01  -1.6211550429739213e-01  -1.6097112757651924e-01  -1.6148170992352176e-01  -1.6019959063345704e-01  -1.6039556736606903e-01  -1.5893761702479636e-01  -1.5891947462565043e-01  -1.5729274763703319e-01  -1.5689346247148162e-01  -1.5496136367181063e-01  -1.5857855694191250e-01  -1.5546168758149645e-01  -1.5274457068277852e-01  -1.5589086674987121e-01  -1.5785470667767915e-01  -1.5301807177327675e-01  -1.5015838611824392e-01  -1.5035413517119545e-01  -1.4713244488408134e-01  -1.4721057708621588e-01  -1.4367279038344105e-01  -1.4366656891167634e-01  -1.4005684462994827e-01  -1.3971865920575693e-01  -1.3538805164726092e-01  -1.3515270095138707e-01  -1.3099867880502128e-01  -1.3034527533817497e-01  -1.2603400195904083e-01  -1.2514262026302297e-01  -1.2074731011921887e-01  -1.1963128583400451e-01  -1.1519966506326744e-01  -1.1381996654195822e-01  -1.0942092902418511e-01  -1.0774281982398103e-01  -1.0342776419823278e-01  -1.0146482045270282e-01  -9.7298518936931394e-02  -9.5001525628689243e-02  -9.1071395585419698e-02  -8.8319466468270977e-02  -1.5410454064853571e-01  -1.5590477998662375e-01  -8.4765189206851818e-02  -8.1594108318841230e-02  -7.8456640068651093e-02  -7.5293911830236412e-02  -7.2244060853893802e-02  -6.8735339296552608e-02  -6.6130202522080642e-02  -6.2301133220303014e-02  -1.4907941664674676e-01  -6.0227811328714694e-02  -5.5982501993807242e-02  -5.4245448127591703e-02  -4.9796777874449367e-02  -4.8664134111136688e-02  -4.3890341393688609e-02  -1.5136252931931615e-01  -1.5332580286527292e-01  -1.6261522524049601e-01  -4.3228293991651956e-02  -3.8178733272575337e-02  -3.8066232094608680e-02  -3.2747902966495664e-02  -3.3159120904505665e-02  -2.7628667172271453e-02  -1.5918520641616782e-01  -2.8524343119630945e-02  -2.2788784878656803e-02  -1.3939118145692161e-01  -2.4147800016749276e-02  -1.8274839994163194e-02  -2.0060858890511304e-02  -1.4078994294728564e-02  -1.6181759257344875e-02  -1.0192031553889534e-02  -1.5956565331715622e-01  -1.2596769937927194e-01  -1.2633527416786312e-02  -6.6146108694184304e-03  -1.4769639629242962e-01  -1.4894910500647462e-01  -1.4608979728340507e-01  -1.1013066719402070e-01  -9.2744212929387910e-03  -3.1875770847311575e-03  -6.2548147041992406e-03  -1.1054024865070023e-04  -3.3853814495087018e-03  2.5547269537339666e-03  -3.8958168356434675e-02  -4.2644182351678304e-04  -2.2150245423222307e-02  -5.8176127556553547e-02  -7.2648310885814233e-04  4.9988239730017507e-03  8.2714178495333739e-03  1.0559705169656472e-02  7.2858590242016142e-03  1.2624745032600034e-02  9.4429831373120075e-03  1.4553148235414284e-02  1.1390906026475580e-02  1.6233852829557985e-02  1.3175424349216848e-02  1.7783054281837931e-02  1.4854998343581047e-02  1.9145240680789762e-02  1.6312238074902227e-02  2.0390473316731741e-02  1.7767848470354775e-02  2.1627201865764147e-02  1.9067857643807883e-02  2.2644019033791960e-02  2.0292513922757254e-02  2.3528142193812208e-02  2.1273357780454083e-02  2.4333336304341688e-02  -7.8153945479252265e-02  -9.3155152174424508e-02  2.2275495980379617e-02  2.5013334842996247e-02  2.3225307143147605e-02  2.5659968624831015e-02  -1.4645501703180969e-01  -1.1165650285826394e-01  2.4071261195315181e-02  2.6194476578310685e-02  -1.2879104049946008e-01  -7.5874849787597926e-02  -1.4312350283994096e-01  -1.4395896321679061e-01  -1.5056137169132389e-01  -1.4444505661269455e-01  -1.4999183248370293e-01  -1.4421699548032405e-01  -1.5009486770692901e-01  -1.4344894340959596e-01  -1.4758164062415841e-01  -1.4166406325726341e-01  -1.4590345577667180e-01  -1.3946760761325502e-01  -1.4217736506602202e-01  -1.3659535721604601e-01  -1.3860384748232635e-01  -1.3351460128829418e-01  -1.3488005855022861e-01  -1.3014559970979678e-01  -1.3107705971174158e-01  -1.2667613311767884e-01  -1.2722177553479644e-01  -1.2309713950629389e-01  -1.2337298822588937e-01  -1.1948426046577783e-01  -1.1952905227524158e-01  -1.1588960785952272e-01  -1.1537377279910324e-01  -1.1200728332321075e-01  -1.1216694022786705e-01  -1.0855791086806686e-01  -1.0831824818270609e-01  -1.0494829802403166e-01  -1.0472290298667238e-01  -1.0138162089360478e-01  -1.0089279212595395e-01  -9.7751985478540832e-02  -1.3130592146249734e-01  -1.0824966928796209e-01  -1.2211937341267279e-01  -9.7195718786060731e-02  -9.4043687713466120e-02  -9.4361777237456534e-02  -9.0827790636548000e-02  -9.0294756424381853e-02  -8.7212524919292600e-02  -8.6500839600595139e-02  -8.3541180301120052e-02  -8.2722322768270781e-02  -7.9812050189279879e-02  -8.7010240447184556e-02  -1.5512624090948243e-01  -1.4758599291042174e-01  -7.9004933601747554e-02  -7.6026469765219720e-02  -7.6791757406996813e-02  -7.3012518517369313e-02  -7.2217131724709449e-02  -6.9252474828417399e-02  -6.8351185960898703e-02  -6.5466911893310359e-02  -1.3960653572369597e-01  -6.9785787124790194e-02  -6.4508665358764691e-02  -6.1695671281000758e-02  -1.3126824637153459e-01  -6.0780399115270903e-02  -5.7868606788714673e-02  -5.9056929117547931e-02  -5.4909203573203287e-02  -5.3932611711172841e-02  -5.0861635020478302e-02  -5.1796936201208045e-02  -4.7751502967173953e-02  -4.6831804694227361e-02  -4.3714737089803973e-02  -4.2786556398659067e-02  -3.9584701159451410e-02  -4.0538234228731158e-02  -3.6411523206077899e-02  -3.5428649086027601e-02  -3.2280365850780250e-02  -3.1336525697143902e-02  -2.8167050320370778e-02  -1.3911224185813703e-01  -1.0801100777382613e-01  -1.2303434199114661e-01  -2.7317372106921520e-02  -2.4085947795422679e-02  -2.4947995900525322e-02  -2.0713502583336135e-02  -1.9856898224414204e-02  -1.6485050050063624e-02  -2.1574405709862538e-02  2.4743859443385152e-02  2.6640486831490898e-02  2.5356359643361782e-02  2.7018618762197504e-02  2.5903095955125126e-02  2.7324329154221987e-02  -8.9613436780026964e-02  -4.8238034304666055e-02  -1.6244037479096957e-01  -1.5596731106776247e-02  -1.2292023478915571e-02  -1.0021845410848881e-01  2.2144196418844030e-02  2.6379251698021369e-02  1.3301371771262487e-02  2.6358429589293242e-02  2.7548956433719716e-02  2.8600703109579347e-02  2.8607203120988446e-02  2.7698614863134317e-02  2.8560727444446859e-02  2.7780803385178500e-02  2.8454869108301414e-02  2.7780394185266361e-02  2.8281600301930873e-02  2.7707673899052411e-02  2.8050022711357654e-02  2.7551155836152679e-02  2.7746660297548392e-02  2.7318391194307179e-02  2.7383644481579105e-02  2.7013011630838458e-02  2.6959061319046403e-02  2.6638398704937699e-02  2.6475347664906695e-02  2.6184160741662015e-02  2.5917300417472498e-02  2.5648295583892922e-02  2.5307970153319863e-02  2.5035506607379035e-02  2.4611784140958968e-02  2.4363013388261984e-02  2.3875603725879557e-02  2.3597006839858804e-02  2.3053897998608689e-02  2.2774510083856926e-02  2.2184737994449633e-02  2.8211319395649616e-02  -3.7432384360057872e-02  -7.1351409473809330e-02  -1.1281543392596675e-02  -7.9896564851299028e-03  -8.9910342112973062e-03  -4.5373145304146547e-03  -5.5830527454825852e-03  -1.0259424516407001e-03  -1.0036006469533826e-04  3.4307074930854326e-03  4.4760727956569303e-03  7.9795605889131319e-03  7.0315874683593623e-03  1.1568552920166888e-02  1.2374456336173390e-02  1.6070303405185976e-02  1.68622528623416