<?xml version="1.0"?>
<VTKFile type="UnstructuredGrid"  version="0.1"  >
<UnstructuredGrid>
<Piece  NumberOfPoints="2886" NumberOfCells="5412">
<Points>
<DataArray  type="Float64"  NumberOfComponents="3"  format="ascii">0 0.1 0  0.98 0.1 0  1 0.1 0  1 0 0  1.5 0 0  3 0 0  3 0.3 0  0 0.3 0  0.01975375321854102 0.1 0  0.03918897458218897 0.1 0  0.05831079002627837 0.1 0  0.07712425666319796 0.1 0  0.0956343475259058 0.1 0  0.1138459546796227 0.1 0  0.1317638870668193 0.1 0  0.1493928840275937 0.1 0  0.1667376092280033 0.1 0  0.1838026357802664 0.1 0  0.2005924801287244 0.1 0  0.2171115811543574 0.1 0  0.2333643037107681 0.1 0  0.2493549444060462 0.1 0  0.2650877293306821 0.1 0  0.2805668058011438 0.1 0  0.2957962848620976 0.1 0  0.3107801766802674 0.1 0  0.3255224447361181 0.1 0  0.3400269848175519 0.1 0  0.3542976327080778 0.1 0  0.3683381609158136 0.1 0  0.3821522744564845 0.1 0  0.3957436316838916 0.1 0  0.4091158196437086 0.1 0  0.4222723742184605 0.1 0  0.4352167733293057 0.1 0  0.4479524348643424 0.1 0  0.4604827295467524 0.1 0  0.4728109659990664 0.1 0  0.4849404035409129 0.1 0  0.4968742471455402 0.1 0  0.508615651843175 0.1 0  0.520167721130924 0.1 0  0.5315335063628542 0.1 0  0.5427160117228604 0.1 0  0.5537181940261912 0.1 0  0.564542961924507 0.1 0  0.575193173270606 0.1 0  0.5856716438765114 0.1 0  0.5959811458006617 0.1 0  0.6061243988680743 0.1 0  0.6161040893285659 0.1 0  0.6259228503970299 0.1 0  0.6355832809287655 0.1 0  0.6450879281079505 0.1 0  0.6544393102991295 0.1 0  0.663639896558931 0.1 0  0.6726921201956305 0.1 0  0.6815983691630338 0.1 0  0.6903610031396646 0.1 0  0.6989823343332418 0.1 0  0.7074646404270378 0.1 0  0.7158101645005117 0.1 0  0.7240211149852543 0.1 0  0.7320996585612525 0.1 0  0.7400479319727645 0.1 0  0.7478680336617921 0.1 0  0.755562036504958 0.1 0  0.7631319665092091 0.1 0  0.7705798279317605 0.1 0  0.777907588066146 0.1 0  0.7851171851013118 0.1 0  0.7922105226004981 0.1 0  0.7991894774550319 0.1 0  0.8060558928136696 0.1 0  0.812811583201334 0.1 0  0.8194583352091183 0.1 0  0.8259979035038147 0.1 0  0.8324320194413813 0.1 0  0.8387623808293405 0.1 0  0.8449906627004957 0.1 0  0.8511185094880469 0.1 0  0.8571475426008311 0.1 0  0.8630793533568246 0.1 0  0.8689155114558531 0.1 0  0.8746575581239063 0.1 0  0.8803070109173519 0.1 0  0.885865363938836 0.1 0  0.8913340851680313 0.1 0  0.8967146206523592 0.1 0  0.9020083930695622 0.1 0  0.9072167995950768 0.1 0  0.9123412183131177 0.1 0  0.9173830029719022 0.1 0  0.9223434865647732 0.1 0  0.9272239785872722 0.1 0  0.9320257720706087 0.1 0  0.9367501330378739 0.1 0  0.9413983102716995 0.1 0  0.9459715351562933 0.1 0  0.9504710127113115 0.1 0  0.9548979346500661 0.1 0  0.9592534708344373 0.1 0  0.9635387708980176 0.1 0  0.9677549682252325 0.1 0  0.971903177251235 0.1 0  0.9759844952956497 0.1 0  0.9840000000000086 0.1 0  0.987999999999974 0.1 0  0.9919999999999393 0.1 0  0.9959999999999913 0.1 0  1 0.09591793123533533 0  1 0.09133596463859224 0  1 0.08619288104391448 0  1 0.08041996484521211 0  1 0.07394008421771697 0  1 0.06666666567302955 0  1 0.05850252932209174 0  1 0.04933859630113544 0  1 0.03905242821848202 0  1 0.02750659386753798 0  1 0.01454683679239736 0  1.015625 0 0  1.03125 0 0  1.046875 0 0  1.0625 0 0  1.078125 0 0  1.09375 0 0  1.109375 0 0  1.125 0 0  1.140625 0 0  1.15625 0 0  1.171875 0 0  1.1875 0 0  1.203125 0 0  1.21875 0 0  1.234375 0 0  1.25 0 0  1.265625 0 0  1.28125 0 0  1.296875 0 0  1.3125 0 0  1.328125 0 0  1.34375 0 0  1.359375 0 0  1.375 0 0  1.390625 0 0  1.40625 0 0  1.421875 0 0  1.4375 0 0  1.453125 0 0  1.46875 0 0  1.484375 0 0  1.515920751924515 0 0  1.531989369316721 0 0  1.54820720925872 0 0  1.564575665560501 0 0  1.581096138674279 0 0  1.597770029901263 0 0  1.614598783332311 0 0  1.631583831055205 0 0  1.64872661129721 0 0  1.666028606716533 0 0  1.683491276608443 0 0  1.701116134125304 0 0  1.718904673324128 0 0  1.736858414799339 0 0  1.754978895814663 0 0  1.773267661782904 0 0  1.791726281103402 0 0  1.810356325314689 0 0  1.8291593848892 0 0  1.848137076690385 0 0  1.867291007717254 0 0  1.886622833871288 0 0  1.90613418642363 0 0  1.925826753299799 0 0  1.945702199101513 0 0  1.96576223584749 0 0  1.986008569283268 0 0  2.006442931928877 0 0  2.02706707547783 0 0  2.047882750887917 0 0  2.06889175187935 0 0  2.090095860038271 0 0  2.111496891648636 0 0  2.133096679109554 0 0  2.154897066851056 0 0  2.176899916687499 0 0  2.199107102752146 0 0  2.22152053937028 0 0  2.244142122958061 0 0  2.266973806444078 0 0  2.290017523268154 0 0  2.313275249499252 0 0  2.336748971745516 0 0  2.360440702338606 0 0  2.384352453384031 0 0  2.408486280477412 0 0  2.432844240041185 0 0  2.457428414757088 0 0  2.482240901796653 0 0  2.507283830121838 0 0  2.532559332080812 0 0  2.558069568787417 0 0  2.583816724966441 0 0  2.60980299606584 0 0  2.636030600971886 0 0  2.662501790984011 0 0  2.689218818279327 0 0  2.716183964547616 0 0  2.743399548861297 0 0  2.77086788244719 0 0  2.798591312896326 0 0  2.826572223178268 0 0  2.854812990138617 0 0  2.883316031690714 0 0  2.912083780657189 0 0  2.941118704633482 0 0  2.970423276998917 0 0  3 0.02999999999994495 0  3 0.05999999999987042 0  3 0.089999999999783 0  3 0.119999999999701 0  3 0.149999999999619 0  3 0.179999999999692 0  3 0.2099999999997737 0  3 0.2399999999998511 0  3 0.2699999999999185 0  2.970138294777171 0.3 0  2.940375666438236 0.3 0  2.910711782853056 0.3 0  2.881146331305122 0.3 0  2.851678975030285 0.3 0  2.822309388626621 0.3 0  2.793037250095074 0.3 0  2.76386223529133 0.3 0  2.734784017903872 0.3 0  2.705802289276642 0.3 0  2.676916713794697 0.3 0  2.648126987654635 0.3 0  2.619432780406184 0.3 0  2.590833779385199 0.3 0  2.562329669847737 0.3 0  2.533920134950189 0.3 0  2.505604855727852 0.3 0  2.477383539822502 0.3 0  2.449255847639465 0.3 0  2.421221492569094 0.3 0  2.393280152486815 0.3 0  2.36543151914496 0.3 0  2.337675285481809 0.3 0  2.310011142385583 0.3 0  2.282438797441587 0.3 0  2.254957931061538 0.3 0  2.227568248063605 0.3 0  2.200269436651085 0.3 0  2.173061204949961 0.3 0  2.145943251515011 0.3 0  2.118915272469994 0.3 0  2.091976978084957 0.3 0  2.065128060700849 0.3 0  2.038368218849433 0.3 0  2.01169717777258 0.3 0  1.985114624111908 0.3 0  1.958620267850966 0.3 0  1.93221382054972 0.3 0  1.905894991850698 0.3 0  1.879663489459713 0.3 0  1.853519019126419 0.3 0  1.827461291053897 0.3 0  1.801490031354372 0.3 0  1.775604937580312 0.3 0  1.74980572560258 0.3 0  1.724092118631866 0.3 0  1.698463829173586 0.3 0  1.672920575782554 0.3 0  1.647462076974085 0.3 0  1.622088043536933 0.3 0  1.5967981978949 0.3 0  1.571592267767068 0.3 0  1.546469970305736 0.3 0  1.521431023814044 0.3 0  1.496475156230927 0.3 0  1.471602093687753 0.3 0  1.446811560490646 0.3 0  1.422103279101731 0.3 0  1.397476971708191 0.3 0  1.37293238939876 0.3 0  1.348469231419202 0.3 0  1.324087248732772 0.3 0  1.299786165921677 0.3 0  1.275565710847046 0.3 0  1.251425617644257 0.3 0  1.227365618676339 0.3 0  1.203385446174014 0.3 0  1.179484853067473 0.3 0  1.155663548773374 0.3 0  1.131921292279077 0.3 0  1.108257802159295 0.3 0  1.084672829009693 0.3 0  1.061166115303374 0.3 0  1.037737392995421 0.3 0  1.01438640299116 0.3 0  0.991112899770314 0.3 0  0.9679166155523955 0.3 0  0.944797284182564 0.3 0  0.921754678526042 0.3 0  0.8987885143602501 0.3 0  0.8758985548820624 0.3 0  0.8530845484099929 0.3 0  0.8303462351786988 0.3 0  0.8076833651172373 0.3 0  0.7850956864865304 0.3 0  0.7625829601354557 0.3 0  0.7401449314598274 0.3 0  0.717781337993959 0.3 0  0.6954919649675473 0.3 0  0.6732765357561226 0.3 0  0.6511348120768439 0.3 0  0.6290665642016573 0.3 0  0.6070715355430467 0.3 0  0.5851494825775325 0.3 0  0.5633001690203812 0.3 0  0.5415233562273221 0.3 0  0.5198187909431873 0.3 0  0.4981862401387795 0.3 0  0.4766254686134248 0.3 0  0.4551362360485234 0.3 0  0.4337182975262159 0.3 0  0.4123714223228037 0.3 0  0.3910953802377493 0.3 0  0.3698899313205595 0.3 0  0.3487548463710963 0.3 0  0.3276898864081783 0.3 0  0.3066948129116018 0.3 0  0.2857694003037476 0.3 0  0.2649134227095047 0.3 0  0.2441266417321288 0.3 0  0.2234088223399122 0.3 0  0.2027597568977288 0.3 0  0.1821792020676698 0.3 0  0.1616669305402443 0.3 0  0.1412227158799362 0.3 0  0.12084633013886 0.3 0  0.1005375673448281 0.3 0  0.08029618164595353 0.3 0  0.06012194778526769 0.3 0  0.04001466495039718 0.3 0  0.01997408913631205 0.3 0  0 0.2800000000000553 0  0 0.2600000000001105 0  0 0.2400000000001658 0  0 0.2200000000002211 0  0 0.2000000000002764 0  0 0.1800000000002244 0  0 0.1600000000001691 0  0 0.140000000000115 0  0 0.1200000000000564 0  1.13346801534201 0.01255848438672509 0  1.003577645172735 0.09351054173913405 0  0.9777559943702486 0.1034978156913738 0  0.9524533750752109 0.1040889939962738 0  0.9296242411226409 0.1041520033606139 0  0.9046110503652111 0.104409422380137 0  0.8777709649694228 0.1053360318797398 0  0.8483859145648608 0.1061007868330701 0  0.8162363822948977 0.1052777104363292 0  0.7893110024210437 0.1060761643971561 0  0.7587949382612539 0.1067265405088633 0  0.7280603867732535 0.1069398153264939 0  0.6947001989413015 0.1075609887579097 0  0.6590363283767549 0.1076715322596598 0  0.6210028614493155 0.1072970410408442 0  1.1953125 0.01353164693413185 0  1.258193991486058 0.01269648635163345 0  1.3201967268638 0.01407907077719561 0  1.383538555392096 0.01434101079053473 0  1.445312500000001 0.01303671693628424 0  1.508925448095738 0.01398525724792267 0  0.9939176689634008 0.1034638089837981 0  1.120967497222226 0.2796788492172345 0  1.572835902117391 0.01424132418857359 0  1.637573277451887 0.01212536916586023 0  1.709730776795181 0.01466855431023635 0  1.005631976950563 0.07074019818158772 0  1.784944696816299 0.01454708406461822 0  0.5805605730631225 0.1101465090472147 0  1.855621181165637 0.01550931272897607 0  0.5366111276616774 0.1096761308243709 0  1.935200147913231 0.01760344159641829 0  1.214922267975168 0.2799787705802257 0  1.31178773425331 0.2792
[...]
<PointData  Scalars="pressure"> 
<DataArray  type="Float64"  Name="pressure"  format="ascii">1.5630954218160759e-01  -1.6618181158563955e-01  -2.1430253494487758e-01  -1.6084868769761423e-01  -4.0532554546962529e-02  0.0000000000000000e+00  0.0000000000000000e+00  1.5631697277335649e-01  1.5038342007249864e-01  1.4455278481050651e-01  1.3881606864946577e-01  1.3317174653687827e-01  1.2761830433453766e-01  1.2215426232192349e-01  1.1677818617203160e-01  1.1148860372118936e-01  1.0628411947812515e-01  1.0116334446381019e-01  9.6124871661365616e-02  9.1167351115291118e-02  8.6289468218683954e-02  8.1489857706019561e-02  7.6767220514011511e-02  7.2120343178780369e-02  6.7547824553571154e-02  6.3048472161039121e-02  5.8621042390041095e-02  5.4264231121370493e-02  4.9976873532298800e-02  4.5757840851397662e-02  4.1605775178834285e-02  3.7519597155484551e-02  3.3498012728318226e-02  2.9539921620723428e-02  2.5644281074890522e-02  2.1809812240720740e-02  1.8035330582652578e-02  1.4319786668761254e-02  1.0662045019660775e-02  7.0609052356077453e-03  3.5153724135317805e-03  2.4202734902853097e-05  -3.4136289652848526e-03  -6.7993095196281911e-03  -1.0133920470369337e-02  -1.3418134049186452e-02  -1.6653806443518108e-02  -1.9841551326857092e-02  -2.2982486768198234e-02  -2.6077920633421309e-02  -2.9128882435903090e-02  -3.2135798628855461e-02  -3.5100786594407234e-02  -3.8024320963792227e-02  -4.0907543472174443e-02  -4.3751610674608407e-02  -4.6557531904699939e-02  -4.9326374630532528e-02  -5.2059348264586254e-02  -5.4757406401667874e-02  -5.7421534624964431e-02  -6.0052705545896853e-02  -6.2652548634752794e-02  -6.5221443021292055e-02  -6.7760698525684435e-02  -7.0270984176923526e-02  -7.2754390514596312e-02  -7.5211364263106095e-02  -7.7642128889486850e-02  -8.0048496959362211e-02  -8.2432108733186849e-02  -8.4792633365591133e-02  -8.7132224937897115e-02  -8.9451643024035132e-02  -9.1751166659757577e-02  -9.4032458153718704e-02  -9.6296454664052053e-02  -9.8544125614599201e-02  -1.0077731084642751e-01  -1.0299609437342207e-01  -1.0520098995838431e-01  -1.0739266867375516e-01  -1.0957480961076477e-01  -1.1174645791822854e-01  -1.1390834438251597e-01  -1.1606248401121749e-01  -1.1820931759358014e-01  -1.2034988920427524e-01  -1.2248540762187123e-01  -1.2461793336753352e-01  -1.2674800013813373e-01  -1.2887592520071794e-01  -1.3100431885758479e-01  -1.3313423182717130e-01  -1.3526698697854783e-01  -1.3740420551252794e-01  -1.3954736852979863e-01  -1.4169845180779644e-01  -1.4385955795202618e-01  -1.4603309040255033e-01  -1.4822182908721368e-01  -1.5042758228124653e-01  -1.5265478279730910e-01  -1.5489838663518093e-01  -1.5728930652799644e-01  -1.5903202913582881e-01  -1.6326443236024532e-01  -1.6291055593257470e-01  -1.6749506281226795e-01  -1.6385858510762025e-01  -2.0233261397429900e-01  -1.8119477037186169e-01  -1.7465632381067364e-01  -1.6988595857234154e-01  -1.6665982648520658e-01  -1.6423672620552113e-01  -1.6242066033272454e-01  -1.6108916924759639e-01  -1.6028894259714671e-01  -1.6009192236023154e-01  -1.6049690136023428e-01  -1.6128912115538799e-01  -1.6166261889376801e-01  -1.6145512990421018e-01  -1.6078163328341513e-01  -1.5973258035582846e-01  -1.5835167511499199e-01  -1.5662397101752687e-01  -1.5453674817733190e-01  -1.5211928062554059e-01  -1.4938918507690926e-01  -1.4635070435759306e-01  -1.4301787976152203e-01  -1.3940216538595712e-01  -1.3551595991439103e-01  -1.3137999124225058e-01  -1.2700755820564066e-01  -1.2241143973195565e-01  -1.1761028502988687e-01  -1.1262325662163547e-01  -1.0746146628436395e-01  -1.0215473752805590e-01  -9.6721739328807899e-02  -9.1178501936098999e-02  -8.5555754868704773e-02  -7.9871877965940710e-02  -7.4156357417064722e-02  -6.8431364537434175e-02  -6.2719237795847246e-02  -5.7051283453728875e-02  -5.1448080365642294e-02  -4.5935154216314812e-02  -3.5165137499846913e-02  -2.9916819966242816e-02  -2.4796951247805385e-02  -1.9838804472230909e-02  -1.5068477811460902e-02  -1.0488323030197295e-02  -6.1238213143124465e-03  -1.9799995578261239e-03  1.8951312581110312e-03  5.5255898438105770e-03  8.9116763926719907e-03  1.2032634378639209e-02  1.4890846668131934e-02  1.7493519269847421e-02  1.9844716178891348e-02  2.1949537723628187e-02  2.3823330736786500e-02  2.5466743206575812e-02  2.6893783124879368e-02  2.8134818745288042e-02  2.9178380255781764e-02  3.0054199401959851e-02  3.0775692774820101e-02  3.1350666321844835e-02  3.1800219117530525e-02  3.2128475273791139e-02  3.2366307733244344e-02  3.2504048243674671e-02  3.2562363562000429e-02  3.2545972083830269e-02  3.2462437879310260e-02  3.2320953714277900e-02  3.2130585343415591e-02  3.1895277801841093e-02  3.1615609788445381e-02  3.1298634414382340e-02  3.0944905702006541e-02  3.0557055317626508e-02  3.0136049256263866e-02  2.9682219526302220e-02  2.9195875071982923e-02  2.8676873494592851e-02  2.8123916029674262e-02  2.7537295805713288e-02  2.6914449284306804e-02  2.6254050353183445e-02  2.5557254056437783e-02  2.4819193638888262e-02  2.4037906883583704e-02  2.3217882926300889e-02  2.2349508695344519e-02  2.1439990362051360e-02  2.0478779749759164e-02  1.9474860609501710e-02  1.8420427267888805e-02  1.7311742544445129e-02  1.6159353644244676e-02  1.4949066039484838e-02  1.3692320835422744e-02  1.2383020974031584e-02  1.1020184510326460e-02  9.6037926705633981e-03  8.1359874162457019e-03  6.6199617249891162e-03  5.0463455582956110e-03  3.4326216018976496e-03  1.7626883153909333e-03  0.0000000000000000e+00  0.0000000000000000e+00  0.0000000000000000e+00  0.0000000000000000e+00  0.0000000000000000e+00  0.0000000000000000e+00  0.0000000000000000e+00  0.0000000000000000e+00  0.0000000000000000e+00  1.9088189170226887e-03  3.6913083303647034e-03  5.4460880315295307e-03  7.1481104355687183e-03  8.8011090120678030e-03  1.0403779324856052e-02  1.1955176521966955e-02  1.3453594253370119e-02  1.4896195289923904e-02  1.6280776037288964e-02  1.7603371572451298e-02  1.8861519608454360e-02  2.0050203417794798e-02  2.1166464625656790e-02  2.2205533624317896e-02  2.3160856683078726e-02  2.4032103810286073e-02  2.4808230382283768e-02  2.5484635274101650e-02  2.6055228091750038e-02  2.6513206066092160e-02  2.6851985616523723e-02  2.7065965767101765e-02  2.7144379948271870e-02  2.7085744921677105e-02  2.6878254090105202e-02  2.6519764232024397e-02  2.5998928995519477e-02  2.5310616895236240e-02  2.4452111484216624e-02  2.3412632137934316e-02  2.2186623126448340e-02  2.0788965275346346e-02  1.9205147236867500e-02  1.7409249553730109e-02  1.5441062477441739e-02  1.3277571833865753e-02  1.0919305642665423e-02  8.3676600672478903e-03  5.6302680487981651e-03  2.6980967387377174e-03  -4.1504251213242654e-04  -3.7175426707618110e-03  -7.1988525664545989e-03  -1.0870084754761825e-02  -1.4715348382899481e-02  -1.8735860388241949e-02  -2.2922481134522801e-02  -2.7278381091752672e-02  -3.1789484820431486e-02  -3.6452967235558180e-02  -4.1257329510009412e-02  -4.6189283810371407e-02  -5.1240225444297446e-02  -5.6394539448093743e-02  -6.1629061935491974e-02  -6.6885895597423722e-02  -7.2210642440637740e-02  -7.7519671100798784e-02  -8.2755228096609984e-02  -8.7921400599062019e-02  -9.2948125561220674e-02  -9.7817667765075736e-02  -1.0242569240761207e-01  -1.0676706702764259e-01  -1.1073462426520983e-01  -1.1431707259769473e-01  -1.1740618398954468e-01  -1.2000645482573213e-01  -1.2198687159579025e-01  -1.2336231384536529e-01  -1.2405932098091897e-01  -1.2394665774876802e-01  -1.2319327526097877e-01  -1.2165673437514150e-01  -1.1934023031164376e-01  -1.1635701306367265e-01  -1.1272599613839386e-01  -1.0857308703206675e-01  -1.0396699575758832e-01  -9.8906115631237440e-02  -9.3531179412905258e-02  -8.7882386472411630e-02  -8.2056454011524615e-02  -7.6057899299427759e-02  -6.9916051240311888e-02  -6.3685813535354394e-02  -5.7380835716558720e-02  -5.1012838352467428e-02  -4.4606557578415439e-02  -3.8167361036486075e-02  -3.1714472287578392e-02  -2.5250947654800588e-02  -1.8779515519618480e-02  -1.2312150676847834e-02  -5.8501468809475073e-03  6.0520510346561199e-04  7.0502706960105625e-03  1.3481806011024795e-02  1.9898603765205410e-02  2.6300113062688486e-02  3.2684735465227245e-02  3.9052267693334627e-02  4.5401034572639713e-02  5.1731398410226830e-02  5.8042604096790726e-02  6.4334364961041599e-02  7.0606579616740800e-02  7.6858924701068337e-02  8.3091345967284569e-02  8.9303804190811312e-02  9.5496197102754296e-02  1.0166849486373464e-01  1.0782069519697181e-01  1.1395280749120101e-01  1.2006480728433425e-01  1.2615676569020856e-01  1.3222870153487865e-01  1.3828064253038447e-01  1.4431264273757657e-01  1.5032473589188916e-01  1.5631694403670676e-01  1.5631663508220056e-01  1.5631588075538824e-01  1.5631469679656809e-01  1.5631325875398791e-01  1.5631181922804346e-01  1.5631063279489685e-01  1.5630987344072234e-01  1.5630956559350662e-01  -1.5296563298743046e-01  -1.8556390331582828e-01  -1.6107810589483984e-01  -1.4716843657061848e-01  -1.3644344619433141e-01  -1.2576411267683124e-01  -1.1516692247727038e-01  -1.0427516638089253e-01  -9.2963673682279674e-02  -8.3858978633224140e-02  -7.3827790449399397e-02  -6.3955244531320871e-02  -5.3431521309229575e-02  -4.2338491731350424e-02  -3.0635472429715125e-02  -1.4106991088463508e-01  -1.2458698258266178e-01  -1.0494930622422476e-01  -8.2654975710701434e-02  -6.0155065356555820e-02  -3.7878448445018233e-02  -1.7399533562746258e-01  -1.2208593340799316e-01  -1.7839916331041941e-02  -9.7222617525431483e-04  1.3053549757031001e-02  -1.6613079764066188e-01  2.2822973428110800e-02  -1.8292324001478816e-02  2.8276496499026721e-02  -4.9544271232854053e-03  3.1353692890012407e-02  -1.1196716153984386e-01  -9.4756767838604372e-02  3.2416264605188393e-02  -7.4436571424197184e-02  8.8616571219739017e-03  -4.8317571811844963e-02  3.2137915963099450e-02  2.3725539242977468e-02  -1.5855790926660526e-01  3.1050603840516354e-02  -2.4872859685637374e-02  -1.2311144267358207e-01  3.9130444254988309e-02  2.9388107952282388e-02  -2.0111869068072208e-03  5.6629555292246538e-02  6.8626264332086470e-03  2.7160898806254042e-02  1.4457375581032009e-02  7.3921369266162801e-02  -1.1754692385018771e-01  2.4441390110112499e-02  1.9984733280606504e-02  -1.0615467284883240e-01  2.3938271143007100e-02  2.0939128035300722e-02  -9.0699478367785649e-02  9.4121992424193765e-02  1.0813926269252888e-01  -1.2686085108139396e-02  1.7835071405887509e-02  1.4147667999704995e-02  2.6188166650619179e-02  -7.3190761388146036e-02  2.7001292412973592e-02  -1.5375553392786948e-01  -4.8250089489758632e-02  2.6185697541910639e-02  1.2559116359504094e-01  -2.8520750212137635e-02  1.0283247470593858e-02  2.3530416837793923e-02  -8.9603546151065840e-03  1.6857343791745132e-02  2.0541257019257804e-02  4.8566867824235305e-02  1.6884538986330917e-02  6.7526768140339172e-02  8.6303574407307904e-02  1.2661249066924595e-02  1.1790313377600119e-01  1.6008680914673806e-03  1.5073332108537774e-01  -1.6128535297252677e-01  8.0706293436729505e-03  5.7110697977132297e-03  1.3570566641784768e-01  -1.7265324414910166e-01  -1.6062568091421806e-01  -1.1810119444299846e-01  -6.0440247236505956e-02  3.3341590311924806e-03  2.9160350313098653e-02  1.3604544313373287e-01  -3.8976005481416276e-02  -6.3546155249363287e-02  -8.4716321181189269e-02  -1.0394094696510522e-01  8.4184140907501218e-02  2.6883581172313507e-02  6.5010317865632702e-02  9.8544908946156529e-02  2.5060435060845387e-02  2.2776155739091367e-02  4.7307303823758910e-02  2.5798057258718757e-02  2.8357182730230433e-02  3.1768169638443443e-02  3.0287057397923509e-02  3.1678875694356859e-02  3.2405345877907617e-02  3.2115052620672310e-02  -2.7721128265259978e-02  1.6175730735558780e-02  3.0118346581200613e-02  2.5879421894558816e-02  1.7864323535037049e-03  1.8543727173163223e-02  6.8442633511184318e-03  -8.5446859284122774e-03  1.3362698792127126e-03  -1.2140474455374223e-02  -2.4083113648746848e-02  1.5107304728114032e-01  -3.6253305376118893e-02  -4.7954154203171895e-02  -5.8753639382910880e-02  -6.9130477430208837e-02  -7.8922311546198082e-02  -8.8219366535576646e-02  -1.4748723929970900e-01  -9.9707425464751281e-02  -1.1071685201844571e-01  -1.2149461775712932e-01  -1.3338725049306471e-01  -1.3223563617257136e-01  -9.4286649960291527e-02  -1.1466155311106177e-01  -7.2365692308864291e-02  -4.9003722900235594e-02  -1.4290200607648235e-01  -1.6424358195625832e-01  1.6780565989907173e-03  1.5057658480284553e-01  4.4983492696161545e-03  -1.6105959489672950e-01  1.5132492690307689e-01  1.3630379520279919e-03  1.4722095775350783e-01  -1.6102578860880865e-01  -1.6068682021556155e-01  -1.6022476679878908e-01  -1.6072716830153921e-01  -1.6024752759494645e-01  -1.6107740993119726e-01  -1.6041639606059338e-01  -1.6152995090035271e-01  -1.6069839033785147e-01  -1.6184887147780214e-01  -1.6089857866933893e-01  -1.6177203712041885e-01  -1.6062614616350124e-01  -1.6113711660016669e-01  -1.5985307549236846e-01  -1.6005180116116108e-01  -1.5859126401261445e-01  -1.5858068352863433e-01  -1.5695095538886189e-01  -1.5656933931240452e-01  -1.5463059229757542e-01  -1.5826215218282494e-01  -1.5511379365074085e-01  -1.5240735668754465e-01  -1.5560263966862287e-01  -1.5758203779241742e-01  -1.5266633502985535e-01  -1.4981507297567537e-01  -1.4999657684088347e-01  -1.4678312012956801e-01  -1.4684701582731469e-01  -1.4331824066018511e-01  -1.4329672180862985e-01  -1.3969482806834241e-01  -1.3934198563653727e-01  -1.3502176492115242e-01  -1.3476967391287004e-01  -1.3062437137212507e-01  -1.2995577854387524e-01  -1.2565400286404668e-01  -1.2474704553429732e-01  -1.2036260927000621e-01  -1.1923046315075018e-01  -1.1481127353667983e-01  -1.1341500179341242e-01  -1.0902991316084788e-01  -1.0733501129954252e-01  -1.0303606289907023e-01  -1.0105589117038290e-01  -9.6907524110945512e-02  -9.4594401978328857e-02  -9.0683036342508822e-02  -8.7913106965856844e-02  -1.5387420116014144e-01  -1.5570818639886821e-01  -8.4382621557064483e-02  -8.1194389982718121e-02  -7.8079984982588488e-02  -7.4900851437555219e-02  -7.1876962593591318e-02  -6.8351613915465639e-02  -6.5773841419855941e-02  -6.1928835922783768e-02  -1.4876009423380485e-01  -5.9883112141841166e-02  -5.5623402999487405e-02  -5.3918896087884034e-02  -4.9453307587626547e-02  -4.8348113022881618e-02  -4.3562729305171931e-02  -1.5121191211527529e-01  -1.5323409480999445e-01  -1.6227202652689215e-01  -4.2928071780559747e-02  -3.7868447141819639e-02  -3.7781910301288676e-02  -3.2455800169444826e-02  -3.2891068975129077e-02  -2.7354941809707500e-02  -1.5895398146124895e-01  -2.8272413102810479e-02  -2.2533666620937802e-02  -1.3905613849094997e-01  -2.3911768032480216e-02  -1.8037997662493591e-02  -1.9840018822523477e-02  -1.3859795225927793e-02  -1.5975192662600089e-02  -9.9897540086864040e-03  -1.5921845881513777e-01  -1.2561200019357935e-01  -1.2440498646570866e-02  -6.4281247708010379e-03  -1.4764274513326980e-01  -1.4896803005283313e-01  -1.4598045434272727e-01  -1.0976257505034000e-01  -9.0939894292934309e-03  -3.0161327951620039e-03  -6.0858292264503646e-03  4.7178672353103675e-05  -3.2268832269038176e-03  2.7004020144710170e-03  -3.8623071937559032e-02  -2.4855480978230702e-04  -2.1873983560508008e-02  -5.7793374284103902e-02  -5.7739281637210612e-04  5.1337192518030334e-03  8.4037504711590490e-03  1.0679964686546967e-02  7.4110085926303157e-03  1.2734259350097513e-02  9.5592661539586864e-03  1.4652869544292317e-02  1.1499325749637754e-02  1.6325058539172488e-02  1.3276798075512861e-02  1.7866765579095830e-02  1.4949901032780865e-02  1.9222407881951571e-02  1.6401676631896372e-02  2.0461943302499095e-02  1.7851768889127533e-02  2.1692907629624208e-02  1.9146793736477697e-02  2.2705149200863119e-02  2.0366714283347791e-02  2.3585141657032287e-02  2.1343766132802422e-02  2.4386624486355968e-02  -7.7743656770808994e-02  -9.2790298489961620e-02  2.2341711561008178e-02  2.5063226255974940e-02  2.3287190604357640e-02  2.5706578947814262e-02  -1.4608463073975292e-01  -1.1124125729089543e-01  2.4128965085281930e-02  2.6237985265581569e-02  -1.2839281757256177e-01  -7.5524322904811425e-02  -1.4316780743521601e-01  -1.4408832273148361e-01  -1.5068512877791979e-01  -1.4468183870318874e-01  -1.5026141900917117e-01  -1.4457339800805538e-01  -1.5052765939572957e-01  -1.4393366799554180e-01  -1.4816312221023753e-01  -1.4226631950444096e-01  -1.4661737835688282e-01  -1.4017027468525819e-01  -1.4299120435340290e-01  -1.3737468621729390e-01  -1.3948339409121210e-01  -1.3434886215859176e-01  -1.3579791806162889e-01  -1.3101482617800883e-01  -1.3201474139356914e-01  -1.2756549409889575e-01  -1.2816657743342857e-01  -1.2399664634211911e-01  -1.2431771434572364e-01  -1.2038771863404796e-01  -1.2046930480160055e-01  -1.1679306955330061e-01  -1.1630580332494968e-01  -1.1290533111817380e-01  -1.1303332819958641e-01  -1.0942571578731231e-01  -1.0921307704981635e-01  -1.0581610887940221e-01  -1.0561584384272185e-01  -1.0224880712809116e-01  -1.0177997375430622e-01  -9.8616667700217528e-02  -1.3203305722717631e-01  -1.0908114673053407e-01  -1.2296331622464361e-01  -9.8077426747836233e-02  -9.4905590145714883e-02  -9.5203613289048403e-02  -9.1669695880295610e-02  -9.1153750209023846e-02  -8.8054624387182534e-02  -8.7356666167120581e-02  -8.4382335119454949e-02  -8.3574835089759533e-02  -8.0651154752738111e-02  -8.7834625200905847e-02  -1.5544362004758314e-01  -1.4844656140552073e-01  -7.9854128772142832e-02  -7.6863886445793242e-02  -7.7617726090039349e-02  -7.3838121023367731e-02  -7.3052923614783730e-02  -7.0078089790289122e-02  -6.9185125871064040e-02  -6.6291943870267780e-02  -1.4058894667791860e-01  -7.0600816423675453e-02  -6.5340713825318100e-02  -6.2520097554631282e-02  -1.3226253819157271e-01  -6.1610610429444747e-02  -5.8692021377389367e-02  -5.9873823630956682e-02  -5.5725896600100709e-02  -5.4755082739092825e-02  -5.1678319162621084e-02  -5.2607064027652264e-02  -4.8562534697016095e-02  -4.7648365587486120e-02  -4.4526384532251190e-02  -4.3602835687425075e-02  -4.0396731189630324e-02  -4.1345316180834077e-02  -3.7219590853132173e-02  -3.6240850527162582e-02  -3.3089116427346979e-02  -3.2148669900623726e-02  -2.8976201144152051e-02  -1.3942467499079617e-01  -1.0892952387001981e-01  -1.2400941245918204e-01  -2.8129342791807753e-02  -2.4895335161831150e-02  -2.5754365241532216e-02  -2.1520465906742611e-02  -2.0666356697501085e-02  -1.7292461820645273e-02  -2.2378307025780520e-02  2.4798045676035066e-02  2.6681189661609723e-02  2.5406875385038781e-02  2.7056497598060468e-02  2.5949864450200609e-02  2.7359440530871252e-02  -9.0484830153488183e-02  -4.7951336430533037e-02  -1.6210046588836485e-01  -1.6406165729861272e-02  -1.3099684117335820e-02  -1.0111957303514664e-01  2.2210342382037895e-02  2.6420560688134531e-02  1.3420722563012740e-02  2.6401493142132807e-02  2.7581395659878417e-02  2.8624801705865496e-02  2.8629664712487297e-02  2.7728445058895150e-02  2.8581514232121557e-02  2.7808009833257097e-02  2.8473980328793985e-02  2.7805099247321809e-02  2.8299170437152649e-02  2.7729923178596582e-02  2.8066014880913263e-02  2.7571079966474270e-02  2.7761140342654041e-02  2.7336116509531279e-02  2.7396622240878698e-02  2.7028588197780572e-02  2.6970584503652049e-02  2.6651922618186781e-02  2.6485431383994541e-02  2.6195706262261542e-02  2.5926029622001870e-02  2.5658011320542518e-02  2.5315374147147317e-02  2.5043554114768815e-02  2.4617979713827870e-02  2.4369476996367680e-02  2.3880624900800493e-02  2.3602010515871328e-02  2.3057849442322590e-02  2.2778202333157357e-02  2.2187691275847094e-02  2.8240812622416071e-02  -3.8235494781068594e-02  -7.2195275832979855e-02  -1.2090861250625617e-02  -8.7974385320216657e-03  -9.7970311193143114e-03  -5.3436523351432516e-03  -6.3875625470092828e-03  -1.8309894552518337e-03  -9.0693568791973462e-04  2.6252695500157707e-03  3.6693659261348857e-03  7.1738408451370844e-03  6.2271225337008074e-03  1.0763700522771312e-02  1.1568560387526992e-02  1.5265165660758169e-02  1.605627232449513