<?xml version="1.0"?>
<VTKFile type="UnstructuredGrid"  version="0.1"  >
<UnstructuredGrid>
<Piece  NumberOfPoints="2886" NumberOfCells="5412">
<Points>
<DataArray  type="Float64"  NumberOfComponents="3"  format="ascii">0 0.1 0  0.98 0.1 0  1 0.1 0  1 0 0  1.5 0 0  3 0 0  3 0.3 0  0 0.3 0  0.01975375321854102 0.1 0  0.03918897458218897 0.1 0  0.05831079002627837 0.1 0  0.07712425666319796 0.1 0  0.0956343475259058 0.1 0  0.1138459546796227 0.1 0  0.1317638870668193 0.1 0  0.1493928840275937 0.1 0  0.1667376092280033 0.1 0  0.1838026357802664 0.1 0  0.2005924801287244 0.1 0  0.2171115811543574 0.1 0  0.2333643037107681 0.1 0  0.2493549444060462 0.1 0  0.2650877293306821 0.1 0  0.2805668058011438 0.1 0  0.2957962848620976 0.1 0  0.3107801766802674 0.1 0  0.3255224447361181 0.1 0  0.3400269848175519 0.1 0  0.3542976327080778 0.1 0  0.3683381609158136 0.1 0  0.3821522744564845 0.1 0  0.3957436316838916 0.1 0  0.4091158196437086 0.1 0  0.4222723742184605 0.1 0  0.4352167733293057 0.1 0  0.4479524348643424 0.1 0  0.4604827295467524 0.1 0  0.4728109659990664 0.1 0  0.4849404035409129 0.1 0  0.4968742471455402 0.1 0  0.508615651843175 0.1 0  0.520167721130924 0.1 0  0.5315335063628542 0.1 0  0.5427160117228604 0.1 0  0.5537181940261912 0.1 0  0.564542961924507 0.1 0  0.575193173270606 0.1 0  0.5856716438765114 0.1 0  0.5959811458006617 0.1 0  0.6061243988680743 0.1 0  0.6161040893285659 0.1 0  0.6259228503970299 0.1 0  0.6355832809287655 0.1 0  0.6450879281079505 0.1 0  0.6544393102991295 0.1 0  0.663639896558931 0.1 0  0.6726921201956305 0.1 0  0.6815983691630338 0.1 0  0.6903610031396646 0.1 0  0.6989823343332418 0.1 0  0.7074646404270378 0.1 0  0.7158101645005117 0.1 0  0.7240211149852543 0.1 0  0.7320996585612525 0.1 0  0.7400479319727645 0.1 0  0.7478680336617921 0.1 0  0.755562036504958 0.1 0  0.7631319665092091 0.1 0  0.7705798279317605 0.1 0  0.777907588066146 0.1 0  0.7851171851013118 0.1 0  0.7922105226004981 0.1 0  0.7991894774550319 0.1 0  0.8060558928136696 0.1 0  0.812811583201334 0.1 0  0.8194583352091183 0.1 0  0.8259979035038147 0.1 0  0.8324320194413813 0.1 0  0.8387623808293405 0.1 0  0.8449906627004957 0.1 0  0.8511185094880469 0.1 0  0.8571475426008311 0.1 0  0.8630793533568246 0.1 0  0.8689155114558531 0.1 0  0.8746575581239063 0.1 0  0.8803070109173519 0.1 0  0.885865363938836 0.1 0  0.8913340851680313 0.1 0  0.8967146206523592 0.1 0  0.9020083930695622 0.1 0  0.9072167995950768 0.1 0  0.9123412183131177 0.1 0  0.9173830029719022 0.1 0  0.9223434865647732 0.1 0  0.9272239785872722 0.1 0  0.9320257720706087 0.1 0  0.9367501330378739 0.1 0  0.9413983102716995 0.1 0  0.9459715351562933 0.1 0  0.9504710127113115 0.1 0  0.9548979346500661 0.1 0  0.9592534708344373 0.1 0  0.9635387708980176 0.1 0  0.9677549682252325 0.1 0  0.971903177251235 0.1 0  0.9759844952956497 0.1 0  0.9840000000000086 0.1 0  0.987999999999974 0.1 0  0.9919999999999393 0.1 0  0.9959999999999913 0.1 0  1 0.09591793123533533 0  1 0.09133596463859224 0  1 0.08619288104391448 0  1 0.08041996484521211 0  1 0.07394008421771697 0  1 0.06666666567302955 0  1 0.05850252932209174 0  1 0.04933859630113544 0  1 0.03905242821848202 0  1 0.02750659386753798 0  1 0.01454683679239736 0  1.015625 0 0  1.03125 0 0  1.046875 0 0  1.0625 0 0  1.078125 0 0  1.09375 0 0  1.109375 0 0  1.125 0 0  1.140625 0 0  1.15625 0 0  1.171875 0 0  1.1875 0 0  1.203125 0 0  1.21875 0 0  1.234375 0 0  1.25 0 0  1.265625 0 0  1.28125 0 0  1.296875 0 0  1.3125 0 0  1.328125 0 0  1.34375 0 0  1.359375 0 0  1.375 0 0  1.390625 0 0  1.40625 0 0  1.421875 0 0  1.4375 0 0  1.453125 0 0  1.46875 0 0  1.484375 0 0  1.515920751924515 0 0  1.531989369316721 0 0  1.54820720925872 0 0  1.564575665560501 0 0  1.581096138674279 0 0  1.597770029901263 0 0  1.614598783332311 0 0  1.631583831055205 0 0  1.64872661129721 0 0  1.666028606716533 0 0  1.683491276608443 0 0  1.701116134125304 0 0  1.718904673324128 0 0  1.736858414799339 0 0  1.754978895814663 0 0  1.773267661782904 0 0  1.791726281103402 0 0  1.810356325314689 0 0  1.8291593848892 0 0  1.848137076690385 0 0  1.867291007717254 0 0  1.886622833871288 0 0  1.90613418642363 0 0  1.925826753299799 0 0  1.945702199101513 0 0  1.96576223584749 0 0  1.986008569283268 0 0  2.006442931928877 0 0  2.02706707547783 0 0  2.047882750887917 0 0  2.06889175187935 0 0  2.090095860038271 0 0  2.111496891648636 0 0  2.133096679109554 0 0  2.154897066851056 0 0  2.176899916687499 0 0  2.199107102752146 0 0  2.22152053937028 0 0  2.244142122958061 0 0  2.266973806444078 0 0  2.290017523268154 0 0  2.313275249499252 0 0  2.336748971745516 0 0  2.360440702338606 0 0  2.384352453384031 0 0  2.408486280477412 0 0  2.432844240041185 0 0  2.457428414757088 0 0  2.482240901796653 0 0  2.507283830121838 0 0  2.532559332080812 0 0  2.558069568787417 0 0  2.583816724966441 0 0  2.60980299606584 0 0  2.636030600971886 0 0  2.662501790984011 0 0  2.689218818279327 0 0  2.716183964547616 0 0  2.743399548861297 0 0  2.77086788244719 0 0  2.798591312896326 0 0  2.826572223178268 0 0  2.854812990138617 0 0  2.883316031690714 0 0  2.912083780657189 0 0  2.941118704633482 0 0  2.970423276998917 0 0  3 0.02999999999994495 0  3 0.05999999999987042 0  3 0.089999999999783 0  3 0.119999999999701 0  3 0.149999999999619 0  3 0.179999999999692 0  3 0.2099999999997737 0  3 0.2399999999998511 0  3 0.2699999999999185 0  2.970138294777171 0.3 0  2.940375666438236 0.3 0  2.910711782853056 0.3 0  2.881146331305122 0.3 0  2.851678975030285 0.3 0  2.822309388626621 0.3 0  2.793037250095074 0.3 0  2.76386223529133 0.3 0  2.734784017903872 0.3 0  2.705802289276642 0.3 0  2.676916713794697 0.3 0  2.648126987654635 0.3 0  2.619432780406184 0.3 0  2.590833779385199 0.3 0  2.562329669847737 0.3 0  2.533920134950189 0.3 0  2.505604855727852 0.3 0  2.477383539822502 0.3 0  2.449255847639465 0.3 0  2.421221492569094 0.3 0  2.393280152486815 0.3 0  2.36543151914496 0.3 0  2.337675285481809 0.3 0  2.310011142385583 0.3 0  2.282438797441587 0.3 0  2.254957931061538 0.3 0  2.227568248063605 0.3 0  2.200269436651085 0.3 0  2.173061204949961 0.3 0  2.145943251515011 0.3 0  2.118915272469994 0.3 0  2.091976978084957 0.3 0  2.065128060700849 0.3 0  2.038368218849433 0.3 0  2.01169717777258 0.3 0  1.985114624111908 0.3 0  1.958620267850966 0.3 0  1.93221382054972 0.3 0  1.905894991850698 0.3 0  1.879663489459713 0.3 0  1.853519019126419 0.3 0  1.827461291053897 0.3 0  1.801490031354372 0.3 0  1.775604937580312 0.3 0  1.74980572560258 0.3 0  1.724092118631866 0.3 0  1.698463829173586 0.3 0  1.672920575782554 0.3 0  1.647462076974085 0.3 0  1.622088043536933 0.3 0  1.5967981978949 0.3 0  1.571592267767068 0.3 0  1.546469970305736 0.3 0  1.521431023814044 0.3 0  1.496475156230927 0.3 0  1.471602093687753 0.3 0  1.446811560490646 0.3 0  1.422103279101731 0.3 0  1.397476971708191 0.3 0  1.37293238939876 0.3 0  1.348469231419202 0.3 0  1.324087248732772 0.3 0  1.299786165921677 0.3 0  1.275565710847046 0.3 0  1.251425617644257 0.3 0  1.227365618676339 0.3 0  1.203385446174014 0.3 0  1.179484853067473 0.3 0  1.155663548773374 0.3 0  1.131921292279077 0.3 0  1.108257802159295 0.3 0  1.084672829009693 0.3 0  1.061166115303374 0.3 0  1.037737392995421 0.3 0  1.01438640299116 0.3 0  0.991112899770314 0.3 0  0.9679166155523955 0.3 0  0.944797284182564 0.3 0  0.921754678526042 0.3 0  0.8987885143602501 0.3 0  0.8758985548820624 0.3 0  0.8530845484099929 0.3 0  0.8303462351786988 0.3 0  0.8076833651172373 0.3 0  0.7850956864865304 0.3 0  0.7625829601354557 0.3 0  0.7401449314598274 0.3 0  0.717781337993959 0.3 0  0.6954919649675473 0.3 0  0.6732765357561226 0.3 0  0.6511348120768439 0.3 0  0.6290665642016573 0.3 0  0.6070715355430467 0.3 0  0.5851494825775325 0.3 0  0.5633001690203812 0.3 0  0.5415233562273221 0.3 0  0.5198187909431873 0.3 0  0.4981862401387795 0.3 0  0.4766254686134248 0.3 0  0.4551362360485234 0.3 0  0.4337182975262159 0.3 0  0.4123714223228037 0.3 0  0.3910953802377493 0.3 0  0.3698899313205595 0.3 0  0.3487548463710963 0.3 0  0.3276898864081783 0.3 0  0.3066948129116018 0.3 0  0.2857694003037476 0.3 0  0.2649134227095047 0.3 0  0.2441266417321288 0.3 0  0.2234088223399122 0.3 0  0.2027597568977288 0.3 0  0.1821792020676698 0.3 0  0.1616669305402443 0.3 0  0.1412227158799362 0.3 0  0.12084633013886 0.3 0  0.1005375673448281 0.3 0  0.08029618164595353 0.3 0  0.06012194778526769 0.3 0  0.04001466495039718 0.3 0  0.01997408913631205 0.3 0  0 0.2800000000000553 0  0 0.2600000000001105 0  0 0.2400000000001658 0  0 0.2200000000002211 0  0 0.2000000000002764 0  0 0.1800000000002244 0  0 0.1600000000001691 0  0 0.140000000000115 0  0 0.1200000000000564 0  1.13346801534201 0.01255848438672509 0  1.003577645172735 0.09351054173913405 0  0.9777559943702486 0.1034978156913738 0  0.9524533750752109 0.1040889939962738 0  0.9296242411226409 0.1041520033606139 0  0.9046110503652111 0.104409422380137 0  0.8777709649694228 0.1053360318797398 0  0.8483859145648608 0.1061007868330701 0  0.8162363822948977 0.1052777104363292 0  0.7893110024210437 0.1060761643971561 0  0.7587949382612539 0.1067265405088633 0  0.7280603867732535 0.1069398153264939 0  0.6947001989413015 0.1075609887579097 0  0.6590363283767549 0.1076715322596598 0  0.6210028614493155 0.1072970410408442 0  1.1953125 0.01353164693413185 0  1.258193991486058 0.01269648635163345 0  1.3201967268638 0.01407907077719561 0  1.383538555392096 0.01434101079053473 0  1.445312500000001 0.01303671693628424 0  1.508925448095738 0.01398525724792267 0  0.9939176689634008 0.1034638089837981 0  1.120967497222226 0.2796788492172345 0  1.572835902117391 0.01424132418857359 0  1.637573277451887 0.01212536916586023 0  1.709730776795181 0.01466855431023635 0  1.005631976950563 0.07074019818158772 0  1.784944696816299 0.01454708406461822 0  0.5805605730631225 0.1101465090472147 0  1.855621181165637 0.01550931272897607 0  0.5366111276616774 0.1096761308243709 0  1.935200147913231 0.01760344159641829 0  1.214922267975168 0.2799787705802257 0  1.31178773425331 0.2792
[...]
<PointData  Scalars="pressure"> 
<DataArray  type="Float64"  Name="pressure"  format="ascii">1.5860364109570418e-01  -1.6547904524234094e-01  -2.1629253147487237e-01  -1.6168625852050558e-01  -4.1265247770347131e-02  0.0000000000000000e+00  0.0000000000000000e+00  1.5861071439555435e-01  1.5267751881728522e-01  1.4684688696454926e-01  1.4111017926924735e-01  1.3546587112202363e-01  1.2991244946981589e-01  1.2444843528350499e-01  1.1907239379378480e-01  1.1378285541729624e-01  1.0857842450659670e-01  1.0345771291035274e-01  9.8419316436214627e-02  9.3461885981733439e-02  8.8584107233080620e-02  8.3784618932718227e-02  7.9062123731314160e-02  7.4415406408023146e-02  6.9843074698707444e-02  6.5343935577281145e-02  6.0916748340708211e-02  5.6560215975476801e-02  5.2273174710836971e-02  4.8054495104445219e-02  4.3902832775878538e-02  3.9817107205853755e-02  3.5796035916676183e-02  3.1838521531051954e-02  2.7943520105210569e-02  2.4109767298381077e-02  2.0336087563117677e-02  1.6621434662082175e-02  1.2964681676853421e-02  9.3646410278114753e-03  5.8203210496760895e-03  2.3304943436639062e-03  -1.1058582969391149e-03  -4.4899075206497894e-03  -7.8227231986021193e-03  -1.1104991190198244e-02  -1.4338511314584388e-02  -1.7523907466142487e-02  -2.0662287097451507e-02  -2.3754925657033452e-02  -2.6802840452943583e-02  -2.9806483002535591e-02  -3.2767890529990469e-02  -3.5687555324409016e-02  -3.8566597714848168e-02  -4.1406150944933648e-02  -4.4207206670838391e-02  -4.6970813131636202e-02  -4.9698151624054658e-02  -5.2390158492853937e-02  -5.5047802158486411e-02  -5.7672037962330183e-02  -6.0264439050915719e-02  -6.2825398048408171e-02  -6.5356185193656061e-02  -6.7857463240138124e-02  -7.0331245981816115e-02  -7.2777972420236828e-02  -7.5197893700224491e-02  -7.7592748300351094e-02  -7.9964110672834640e-02  -8.2311695578307531e-02  -8.4637565168346501e-02  -8.6942451924733724e-02  -8.9226650674660721e-02  -9.1491748366939879e-02  -9.3738649418008718e-02  -9.5968286027082808e-02  -9.8182401367748418e-02  -1.0038109977888098e-01  -1.0256486553511486e-01  -1.0473436236122134e-01  -1.0689302867406733e-01  -1.0903998302858563e-01  -1.1117591485532169e-01  -1.1330270452173501e-01  -1.1542075794794111e-01  -1.1753103672740806e-01  -1.1963465099322632e-01  -1.2173348108138168e-01  -1.2382799899991981e-01  -1.2591844325917909e-01  -1.2800716609450488e-01  -1.3009505831746049e-01  -1.3218323987535568e-01  -1.3427306554584981e-01  -1.3636573614533709e-01  -1.3846285971215261e-01  -1.4056609402407080e-01  -1.4267728430809548e-01  -1.4479835326706850e-01  -1.4693075991224591e-01  -1.4907570268850773e-01  -1.5122119164429809e-01  -1.5359329371110056e-01  -1.5478139240065308e-01  -1.5833601895783708e-01  -1.5561641138112708e-01  -1.6062044174338283e-01  -1.5809685509634802e-01  -2.0357245054564393e-01  -1.8210151370128672e-01  -1.7551671160558716e-01  -1.7072623942104495e-01  -1.6749282359467971e-01  -1.6506664980132416e-01  -1.6324989599869721e-01  -1.6191958696204053e-01  -1.6112158188984441e-01  -1.6092731315707415e-01  -1.6133430466308946e-01  -1.6212689454680196e-01  -1.6250231399454901e-01  -1.6229762103713086e-01  -1.6162798787102806e-01  -1.6058407382450016e-01  -1.5920967182043005e-01  -1.5748988630398744e-01  -1.5541200157321683e-01  -1.5300509390538158e-01  -1.5028653625605654e-01  -1.4726033653535617e-01  -1.4394021969521226e-01  -1.4033726663795035e-01  -1.3646351890898489e-01  -1.3233930850152884e-01  -1.2797750917730075e-01  -1.2339048058672435e-01  -1.1859647561817854e-01  -1.1361427698173954e-01  -1.0845442031744876e-01  -1.0314672286834396e-01  -9.7709304033210084e-02  -9.2157957912899977e-02  -8.6523289575709622e-02  -8.0823585527841427e-02  -7.5088131126228350e-02  -6.9339134765411564e-02  -6.3599057850539209e-02  -5.7899395235366920e-02  -5.2260882837586814e-02  -4.6709359352160792e-02  -3.5852918531054490e-02  -3.0557258274514349e-02  -2.5387720051189347e-02  -2.0378351932011200e-02  -1.5556023333595249e-02  -1.0922872155893619e-02  -6.5058251045142764e-03  -2.3101767379007051e-03  1.6154493519434016e-03  5.2948967520064193e-03  8.7276417045741867e-03  1.1892526300376263e-02  1.4791713196748643e-02  1.7432073248262136e-02  1.9817465795255316e-02  2.1952900752086283e-02  2.3853678992475199e-02  2.5520297921761401e-02  2.6967084951456218e-02  2.8224489717587349e-02  2.9281074761082469e-02  3.0166966680181716e-02  3.0895764755758511e-02  3.1475533804923690e-02  3.1927680165282607e-02  3.2256647676409574e-02  3.2493576457557814e-02  3.2629011736889903e-02  3.2683945715461474e-02  3.2663271055931919e-02  3.2574783333408748e-02  3.2427907427491805e-02  3.2231883118214837e-02  3.1990788404763576e-02  3.1705327373826447e-02  3.1382664057700557e-02  3.1023441170928038e-02  3.0630341359630352e-02  3.0204389435217846e-02  2.9745945943470409e-02  2.9255333220892056e-02  2.8732417793635633e-02  2.8175901901467931e-02  2.7586049604459623e-02  2.6960299983869014e-02  2.6297297653752629e-02  2.5598139153259269e-02  2.4857954741386298e-02  2.4074766990023557e-02  2.3252961309538973e-02  2.2382968843235318e-02  2.1471882459096963e-02  2.0509204332245737e-02  1.9503800218638800e-02  1.8447886883122523e-02  1.7337695821083698e-02  1.6183720592263574e-02  1.4971794020973253e-02  1.3713285465316827e-02  1.2402110647265104e-02  1.1037264953218015e-02  9.6187460629430909e-03  8.1486918584603649e-03  6.6302795039157028e-03  5.0541006389929052e-03  3.4377892185510819e-03  1.7651262354092469e-03  0.0000000000000000e+00  0.0000000000000000e+00  0.0000000000000000e+00  0.0000000000000000e+00  0.0000000000000000e+00  0.0000000000000000e+00  0.0000000000000000e+00  0.0000000000000000e+00  0.0000000000000000e+00  1.9153844173737603e-03  3.7032556434215967e-03  5.4633975536157505e-03  7.1704476786694036e-03  8.8281667162025089e-03  1.0435259152966182e-02  1.1990780903669476e-02  1.3493002288787288e-02  1.4939050907313595e-02  1.6326701618799285e-02  1.7651939681817282e-02  1.8912269510950049e-02  2.0102617121858336e-02  2.1219974968149532e-02  2.2259505651399340e-02  2.3214613880650613e-02  2.4084913889985120e-02  2.4859275452749834e-02  2.5533040925796675e-02  2.6100065514172675e-02  2.6553493324119541e-02  2.6886694530143383e-02  2.7094013766824729e-02  2.7164696628547525e-02  2.7097165825094773e-02  2.6879686759404654e-02  2.6510109011505596e-02  2.5977100189187502e-02  2.5275568904122577e-02  2.4402877775474313e-02  2.3348323815959811e-02  2.2106455719565848e-02  2.0692214500628730e-02  1.9091281239768054e-02  1.7277714716271073e-02  1.5291673262152332e-02  1.3109991842106161e-02  1.0733461073727470e-02  8.1635633988156476e-03  5.4079452552121439e-03  2.4577312406097443e-03  -6.7324036747413193e-04  -3.9933819911707703e-03  -7.4920571441958704e-03  -1.1180422250807173e-02  -1.5042567322835864e-02  -1.9079690644527501e-02  -2.3282602250033653e-02  -2.7654488737694560e-02  -3.2181203698990933e-02  -3.6859798694091707e-02  -4.1678622285579461e-02  -4.6624072478312482e-02  -5.1687309302013720e-02  -5.6852474591185739e-02  -6.2095749430247218e-02  -6.7357766447597459e-02  -7.2685098930280523e-02  -7.7992425906158971e-02  -8.3220111873962846e-02  -8.8372228716272733e-02  -9.3377202998735434e-02  -9.8215805262092809e-02  -1.0278219527455106e-01  -1.0706994703644540e-01  -1.1096978536104755e-01  -1.1446986483774996e-01  -1.1745975806623180e-01  -1.1994392627847388e-01  -1.2179036991990026e-01  -1.2301469019855846e-01  -1.2354549567213828e-01  -1.2325537762793043e-01  -1.2231615176311213e-01  -1.2059446341448107e-01  -1.1809938982472659e-01  -1.1494941900396927e-01  -1.1116917399558826e-01  -1.0688469886326127e-01  -1.0216546471613232e-01  -9.7012224727453605e-02  -9.1560682270059132e-02  -8.5850069007042951e-02  -7.9972412312934060e-02  -7.3932320724893794e-02  -6.7757708566236419e-02  -6.1500586451204320e-02  -5.5173951420273495e-02  -4.8788880538280038e-02  -4.2368780845053841e-02  -3.5918737375431393e-02  -2.9456915718522800e-02  -2.2986216589364089e-02  -1.6509211744929947e-02  -1.0037220927023678e-02  -3.5714704271144209e-03  2.8868267072831495e-03  9.3342342022397495e-03  1.5767689589901459e-02  2.2186049649507576e-02  2.8588799665275784e-02  3.4974429241494673e-02  4.1342751049591397e-02  4.7692180743249220e-02  5.4023066633737619e-02  6.0334696218164480e-02  6.6626802446490455e-02  7.2899292363951873e-02  7.9151863404996498e-02  8.5384467537168635e-02  9.1597071504077393e-02  9.7789581558908822e-02  1.0396197312703871e-01  1.1011424764148346e-01  1.1624641748396899e-01  1.2235846293882287e-01  1.2845045464385013e-01  1.3452241428932993e-01  1.4057437157272035e-01  1.4660638090369518e-01  1.5261847799033795e-01  1.5861068705534123e-01  1.5861039300980623e-01  1.5860967498303968e-01  1.5860854792710954e-01  1.5860717896098073e-01  1.5860580858250919e-01  1.5860467917110943e-01  1.5860395635941704e-01  1.5860366336900819e-01  -1.5384575017613525e-01  -1.8660580398532733e-01  -1.5730521476134088e-01  -1.4376689314421631e-01  -1.3332763717616714e-01  -1.2285650786399777e-01  -1.1241513576854559e-01  -1.0164522244514569e-01  -9.0428784775828316e-02  -8.1381654787075583e-02  -7.1398998743178413e-02  -6.1562216003596959e-02  -5.1066544223849340e-02  -3.9994782305424116e-02  -2.8307473911455546e-02  -1.4199663957019812e-01  -1.2555915021282693e-01  -1.0593881672032586e-01  -8.3611211194328419e-02  -6.1017699073010218e-02  -3.8586042283348276e-02  -1.6979571849265473e-01  -1.2182553757617066e-01  -1.8354858110238608e-02  -1.2869958903705130e-03  1.2929991732536682e-02  -1.6697181542342404e-01  2.2840069427301237e-02  -1.5975541872522245e-02  2.8368280767669406e-02  -2.6457425313914963e-03  3.1477616653378920e-02  -1.1215745280973824e-01  -9.5163719456073215e-02  3.2537834236469117e-02  -7.4903544647036580e-02  1.1164949357121970e-02  -4.8752172634511218e-02  3.2241816422444794e-02  2.6025210142767850e-02  -1.5941258420770110e-01  3.1131888041271368e-02  -2.5236575644747392e-02  -1.2232334964682678e-01  4.1427819127598998e-02  2.9450039814862990e-02  -2.2760203526296569e-03  5.8925412355239910e-02  6.6498376549867285e-03  2.7208524454849316e-02  1.4300741082695963e-02  7.6216384512416468e-02  -1.1623212543195993e-01  2.4479845084581644e-02  1.9880130024394576e-02  -1.0441625562363983e-01  2.3882458693575415e-02  2.0970766406750697e-02  -8.8701196383946496e-02  9.6416481629662584e-02  1.1043355344987367e-01  -1.3001861994277919e-02  1.7862164345283676e-02  1.4169603997798116e-02  2.6172327796221834e-02  -7.1051406015764471e-02  2.7025184643002461e-02  -1.5012725370734548e-01  -4.6020953477146596e-02  2.6227414572985382e-02  1.2788532141605766e-01  -2.6260010410087107e-02  1.0299544025028560e-02  2.3582851232621126e-02  -6.6836574819658986e-03  1.9143979451070822e-02  2.0593506896089176e-02  5.0858245141120730e-02  1.6931179335077182e-02  6.9819333972645503e-02  8.8596762772598328e-02  1.2698259836539246e-02  1.2019677024313140e-01  1.6050142174590773e-03  1.5302720933465194e-01  -1.6211937756853728e-01  8.0952836846590343e-03  5.7201774828356177e-03  1.3799938716509433e-01  -1.7352813178346482e-01  -1.6146951317863320e-01  -1.1809858970214199e-01  -5.8244867139034609e-02  5.6166686052702783e-03  3.1449420008512710e-02  1.3833956216530147e-01  -3.9386018807044343e-02  -6.4008108835706901e-02  -8.5168094706100331e-02  -1.0426625919749308e-01  8.6478843252917992e-02  2.6889288112840526e-02  6.7305707087059796e-02  1.0083833397112973e-01  2.5109295202158825e-02  2.2810976734999294e-02  4.9603860858210440e-02  2.5840348956314773e-02  2.8411383371397599e-02  3.4066501507472723e-02  3.0358067519192313e-02  3.1771387167555162e-02  3.2520015129901034e-02  3.2241021232745221e-02  -2.8337424234564017e-02  1.8477023005875216e-02  3.0231547684289949e-02  2.5939611130644465e-02  4.0921974938656486e-03  1.8499089048107313e-02  6.6337979080990728e-03  -8.9532478627578679e-03  1.3388958445668864e-03  -9.8278741644129419e-03  -2.1761625803268802e-02  1.5336706876977263e-01  -3.3918415833950208e-02  -4.5600582613607783e-02  -5.6375580368506290e-02  -6.6719906633538398e-02  -7.6470562554976612e-02  -8.5716189742107859e-02  -1.4839007216757272e-01  -9.7119442403680784e-02  -1.0801940641176802e-01  -1.1865493666078271e-01  -1.3433838031686066e-01  -1.2920937346517219e-01  -9.5267648957013243e-02  -1.1564779145953885e-01  -7.3286738512072208e-02  -4.9796512361036681e-02  -1.3962644865759666e-01  -1.5854355750721255e-01  1.6832236762993819e-03  1.5287036000761492e-01  4.5124570148399228e-03  -1.6189821286234110e-01  1.5361901947388371e-01  1.3652237617719856e-03  1.4951469749413912e-01  -1.6186651070614838e-01  -1.6152820907401252e-01  -1.6106912773977186e-01  -1.6156923500541973e-01  -1.6109249001963230e-01  -1.6192077253621387e-01  -1.6126292706615086e-01  -1.6237573949326092e-01  -1.6154731819012169e-01  -1.6269815070292376e-01  -1.6175100842415779e-01  -1.6262528945232121e-01  -1.6148303678372602e-01  -1.6199329034710749e-01  -1.6071392966990630e-01  -1.6090559455234985e-01  -1.5945134317223403e-01  -1.5942053322657787e-01  -1.5779766473928900e-01  -1.5736708215407247e-01  -1.5544433307793992e-01  -1.5904072551899029e-01  -1.5597560045280806e-01  -1.5323612166122827e-01  -1.5630035937876594e-01  -1.5823994515691281e-01  -1.5353622179072327e-01  -1.5065731550234338e-01  -1.5087961646188783e-01  -1.4763781445061444e-01  -1.4774288514881859e-01  -1.4418231701582207e-01  -1.4420532001687839e-01  -1.4057428003551531e-01  -1.4026397021562118e-01  -1.3590529960508771e-01  -1.3570224362462263e-01  -1.3152321659152041e-01  -1.3089853188051276e-01  -1.2656025354187003e-01  -1.2569785219897736e-01  -1.2127266129430449e-01  -1.2018610929016227e-01  -1.1572172031081369e-01  -1.1437158644236484e-01  -1.0993736530933816e-01  -1.0828823590023161e-01  -1.0393474363689549e-01  -1.0200049865182280e-01  -9.7793521571573921e-02  -9.5521974993205888e-02  -9.1551204337543240e-02  -8.8826406351063786e-02  -1.5441044804636236e-01  -1.5615525451492654e-01  -8.5224468786624208e-02  -8.2077518725223550e-02  -7.8895890111662259e-02  -7.5754982772931939e-02  -7.2657885996507313e-02  -6.9169750316436601e-02  -6.6517682561540142e-02  -6.2706368508813129e-02  -1.4953309736067164e-01  -6.0588549759097922e-02  -5.6356736408310883e-02  -5.4570839677785365e-02  -5.0137542485469436e-02  -4.8966425592659089e-02  -4.4198559640617065e-02  -1.5152575552158118e-01  -1.5339100683362897e-01  -1.6312480697209575e-01  -4.3501259493884635e-02  -3.8453700881558570e-02  -3.8311265676406116e-02  -3.2990032846796302e-02  -3.3377088189956008e-02  -2.7839386206487637e-02  -1.5950039318470438e-01  -2.8717022798202697e-02  -2.2969477308939584e-02  -1.3985670857991733e-01  -2.4316934938342100e-02  -1.8427683052595949e-02  -2.0208745583361745e-02  -1.4206502307935296e-02  -1.6310607983183487e-02  -1.0296670054760388e-02  -1.6008070039862271e-01  -1.2644715215096544e-01  -1.2745708020080957e-02  -6.6993555302347100e-03  -1.4768599403126229e-01  -1.4881682056862269e-01  -1.4617170864600096e-01  -1.1060480752302823e-01  -9.3719542666913479e-03  -3.2542633677019161e-03  -6.3404919770074187e-03  -1.6220668214156521e-04  -3.4606679868203608e-03  2.5147708404481676e-03  -3.9263975975803597e-02  -4.7839704574969964e-04  -2.2347385234197707e-02  -5.8588239134094423e-02  -7.9311455041554564e-04  4.9684280315863069e-03  8.2691069320946376e-03  1.0568026586047555e-02  7.2635638333212738e-03  1.2641570800511705e-02  9.4277508404154321e-03  1.4576915780742760e-02  1.1381131994274941e-02  1.6262235785858278e-02  1.3170046767489023e-02  1.7815134823640368e-02  1.4853633898883885e-02  1.9179746024758994e-02  1.6313439493172183e-02  2.0426622059637727e-02  1.7772398305957286e-02  2.1665877424501177e-02  1.9075160009347898e-02  2.2683503020032473e-02  2.0302724009771549e-02  2.3568094965135240e-02  2.1285058976666056e-02  2.4373654674274364e-02  -7.8648438598769979e-02  -9.3595808259372623e-02  2.2289914068175598e-02  2.5053900462343612e-02  2.3242971095051947e-02  2.5701159788523237e-02  -1.4699920406793754e-01  -1.1222396677491960e-01  2.4092089571576058e-02  2.6236188220503460e-02  -1.2935894124101516e-01  -7.6266527230339970e-02  -1.4293683585137607e-01  -1.4362927808878043e-01  -1.5025244057719758e-01  -1.4393371179297634e-01  -1.4943309628497145e-01  -1.4350247639541711e-01  -1.4925822713644896e-01  -1.4251614079755612e-01  -1.4648955772703406e-01  -1.4053080501594581e-01  -1.4458548006631336e-01  -1.3816320241462066e-01  -1.4068787091387464e-01  -1.3516009765735321e-01  -1.3700170392254815e-01  -1.3198559996326092e-01  -1.3321198733111841e-01  -1.2855673484079172e-01  -1.2937453614977246e-01  -1.2505261047130348e-01  -1.2550638168957926e-01  -1.2145587644330444e-01  -1.2165697308882718e-01  -1.1783579709525080e-01  -1.1781989694203551e-01  -1.1424066295382819e-01  -1.1367778435694302e-01  -1.1036687463313115e-01  -1.1057844937834641e-01  -1.0696677890379018e-01  -1.0668289568691557e-01  -1.0335694711660305e-01  -1.0309051660430843e-01  -9.9791165509893739e-02  -9.9269741129755465e-02  -9.6165539484520279e-02  -1.2995434010666185e-01  -1.0671788563478873e-01  -1.2056968105235101e-01  -9.5581566405666077e-02  -9.2461733351269240e-02  -9.2812395915577203e-02  -8.9278259417385888e-02  -8.8717525695236235e-02  -8.5662667692561895e-02  -8.4928764994469941e-02  -8.1992861714366677e-02  -8.1155647878328296e-02  -7.8267067024132844e-02  -8.5489042235618401e-02  -1.5449244050061248e-01  -1.4602110751789282e-01  -7.7443662228641880e-02  -7.4484240804240529e-02  -7.5267976187683702e-02  -7.1489342384251170e-02  -7.0677557394722937e-02  -6.7729300694815767e-02  -6.6814631558911167e-02  -6.3944700222205400e-02  -1.3783215760727105e-01  -6.8279626119838607e-02  -6.2975190540606546e-02  -6.0174460477898296e-02  -1.2947141578242549e-01  -5.9249911467874984e-02  -5.6349047343633232e-02  -5.7547807302197815e-02  -5.3400424212182059e-02  -5.2414592760337185e-02  -4.9352890710857647e-02  -5.0298661975379952e-02  -4.6251795196668249e-02  -4.5323278598414896e-02  -4.2214059784376187e-02  -4.1278501046228461e-02  -3.8083428468844674e-02  -3.9044832595506986e-02  -3.4916559557916303e-02  -3.3927118820401878e-02  -3.0784325243330222e-02  -2.9835101145770371e-02  -2.6670383820745741e-02  -1.3846436878418583e-01  -1.0633685600674299e-01  -1.2126802097975817e-01  -2.5816236967905803e-02  -2.2588916206174717e-02  -2.3455739835728670e-02  -1.9220311454343865e-02  -1.8359764235112017e-02  -1.4991156258875607e-02  -2.0086053781764486e-02  2.4767108246649343e-02  2.6682750778986443e-02  2.5382460537542079e-02  2.7061617718754771e-02  2.5932308564397624e-02  2.7368278804022730e-02  -8.8016090470057234e-02  -4.8501548840566990e-02  -1.6294404166294257e-01  -1.4099644968126154e-02  -1.0797743505178242e-02  -9.8572654448360775e-02  2.2214172065363198e-02  2.6446739144952557e-02  1.3335102408312451e-02  2.6390735184300278e-02  2.7593882710090951e-02  2.8658421458358174e-02  2.8663776262256788e-02  2.7744598623612768e-02  2.8616424321663347e-02  2.7827940448633046e-02  2.8509867131448593e-02  2.7828590102242423e-02  2.8335924783824920e-02  2.7756889231802338e-02  2.8103803999324814e-02  2.7601233703429300e-02  2.7799890590830181e-02  2.7369202069206400e-02  2.7436383981608234e-02  2.7064434789202806e-02  2.7011289390025853e-02  2.6690248377746091e-02  2.6527039470392425e-02  2.6236212862078095e-02  2.5968349552741625e-02  2.5700335893035314e-02  2.5358298001562453e-02  2.5087323787429075e-02  2.4661250214628904e-02  2.4414351775631778e-02  2.3924081521782173e-02  2.3647466099477200e-02  2.3101212966411096e-02  2.2824297682737568e-02  2.2230762133119780e-02  2.8273757274424039e-02  -3.5945298787834458e-02  -6.9798829847176350e-02  -9.7846513564982581e-03  -6.4951921209259458e-03  -7.4993788890781931e-03  -3.0451267406175079e-03  -4.0937375737783478e-03  4.6421598604198686e-04  1.3921967855265024e-03  4.9214773936044065e-03  5.9688306067713463e-03  9.4707692528914530e-03  8.5208330574240102e-03  1.3058404110763467e-02  1.3865937584576216e-02  1.7560598938491517e-02  1.8353862992518608