<?xml version="1.0"?>
<VTKFile type="UnstructuredGrid"  version="0.1"  >
<UnstructuredGrid>
<Piece  NumberOfPoints="2886" NumberOfCells="5412">
<Points>
<DataArray  type="Float64"  NumberOfComponents="3"  format="ascii">0 0.1 0  0.98 0.1 0  1 0.1 0  1 0 0  1.5 0 0  3 0 0  3 0.3 0  0 0.3 0  0.01975375321854102 0.1 0  0.03918897458218897 0.1 0  0.05831079002627837 0.1 0  0.07712425666319796 0.1 0  0.0956343475259058 0.1 0  0.1138459546796227 0.1 0  0.1317638870668193 0.1 0  0.1493928840275937 0.1 0  0.1667376092280033 0.1 0  0.1838026357802664 0.1 0  0.2005924801287244 0.1 0  0.2171115811543574 0.1 0  0.2333643037107681 0.1 0  0.2493549444060462 0.1 0  0.2650877293306821 0.1 0  0.2805668058011438 0.1 0  0.2957962848620976 0.1 0  0.3107801766802674 0.1 0  0.3255224447361181 0.1 0  0.3400269848175519 0.1 0  0.3542976327080778 0.1 0  0.3683381609158136 0.1 0  0.3821522744564845 0.1 0  0.3957436316838916 0.1 0  0.4091158196437086 0.1 0  0.4222723742184605 0.1 0  0.4352167733293057 0.1 0  0.4479524348643424 0.1 0  0.4604827295467524 0.1 0  0.4728109659990664 0.1 0  0.4849404035409129 0.1 0  0.4968742471455402 0.1 0  0.508615651843175 0.1 0  0.520167721130924 0.1 0  0.5315335063628542 0.1 0  0.5427160117228604 0.1 0  0.5537181940261912 0.1 0  0.564542961924507 0.1 0  0.575193173270606 0.1 0  0.5856716438765114 0.1 0  0.5959811458006617 0.1 0  0.6061243988680743 0.1 0  0.6161040893285659 0.1 0  0.6259228503970299 0.1 0  0.6355832809287655 0.1 0  0.6450879281079505 0.1 0  0.6544393102991295 0.1 0  0.663639896558931 0.1 0  0.6726921201956305 0.1 0  0.6815983691630338 0.1 0  0.6903610031396646 0.1 0  0.6989823343332418 0.1 0  0.7074646404270378 0.1 0  0.7158101645005117 0.1 0  0.7240211149852543 0.1 0  0.7320996585612525 0.1 0  0.7400479319727645 0.1 0  0.7478680336617921 0.1 0  0.755562036504958 0.1 0  0.7631319665092091 0.1 0  0.7705798279317605 0.1 0  0.777907588066146 0.1 0  0.7851171851013118 0.1 0  0.7922105226004981 0.1 0  0.7991894774550319 0.1 0  0.8060558928136696 0.1 0  0.812811583201334 0.1 0  0.8194583352091183 0.1 0  0.8259979035038147 0.1 0  0.8324320194413813 0.1 0  0.8387623808293405 0.1 0  0.8449906627004957 0.1 0  0.8511185094880469 0.1 0  0.8571475426008311 0.1 0  0.8630793533568246 0.1 0  0.8689155114558531 0.1 0  0.8746575581239063 0.1 0  0.8803070109173519 0.1 0  0.885865363938836 0.1 0  0.8913340851680313 0.1 0  0.8967146206523592 0.1 0  0.9020083930695622 0.1 0  0.9072167995950768 0.1 0  0.9123412183131177 0.1 0  0.9173830029719022 0.1 0  0.9223434865647732 0.1 0  0.9272239785872722 0.1 0  0.9320257720706087 0.1 0  0.9367501330378739 0.1 0  0.9413983102716995 0.1 0  0.9459715351562933 0.1 0  0.9504710127113115 0.1 0  0.9548979346500661 0.1 0  0.9592534708344373 0.1 0  0.9635387708980176 0.1 0  0.9677549682252325 0.1 0  0.971903177251235 0.1 0  0.9759844952956497 0.1 0  0.9840000000000086 0.1 0  0.987999999999974 0.1 0  0.9919999999999393 0.1 0  0.9959999999999913 0.1 0  1 0.09591793123533533 0  1 0.09133596463859224 0  1 0.08619288104391448 0  1 0.08041996484521211 0  1 0.07394008421771697 0  1 0.06666666567302955 0  1 0.05850252932209174 0  1 0.04933859630113544 0  1 0.03905242821848202 0  1 0.02750659386753798 0  1 0.01454683679239736 0  1.015625 0 0  1.03125 0 0  1.046875 0 0  1.0625 0 0  1.078125 0 0  1.09375 0 0  1.109375 0 0  1.125 0 0  1.140625 0 0  1.15625 0 0  1.171875 0 0  1.1875 0 0  1.203125 0 0  1.21875 0 0  1.234375 0 0  1.25 0 0  1.265625 0 0  1.28125 0 0  1.296875 0 0  1.3125 0 0  1.328125 0 0  1.34375 0 0  1.359375 0 0  1.375 0 0  1.390625 0 0  1.40625 0 0  1.421875 0 0  1.4375 0 0  1.453125 0 0  1.46875 0 0  1.484375 0 0  1.515920751924515 0 0  1.531989369316721 0 0  1.54820720925872 0 0  1.564575665560501 0 0  1.581096138674279 0 0  1.597770029901263 0 0  1.614598783332311 0 0  1.631583831055205 0 0  1.64872661129721 0 0  1.666028606716533 0 0  1.683491276608443 0 0  1.701116134125304 0 0  1.718904673324128 0 0  1.736858414799339 0 0  1.754978895814663 0 0  1.773267661782904 0 0  1.791726281103402 0 0  1.810356325314689 0 0  1.8291593848892 0 0  1.848137076690385 0 0  1.867291007717254 0 0  1.886622833871288 0 0  1.90613418642363 0 0  1.925826753299799 0 0  1.945702199101513 0 0  1.96576223584749 0 0  1.986008569283268 0 0  2.006442931928877 0 0  2.02706707547783 0 0  2.047882750887917 0 0  2.06889175187935 0 0  2.090095860038271 0 0  2.111496891648636 0 0  2.133096679109554 0 0  2.154897066851056 0 0  2.176899916687499 0 0  2.199107102752146 0 0  2.22152053937028 0 0  2.244142122958061 0 0  2.266973806444078 0 0  2.290017523268154 0 0  2.313275249499252 0 0  2.336748971745516 0 0  2.360440702338606 0 0  2.384352453384031 0 0  2.408486280477412 0 0  2.432844240041185 0 0  2.457428414757088 0 0  2.482240901796653 0 0  2.507283830121838 0 0  2.532559332080812 0 0  2.558069568787417 0 0  2.583816724966441 0 0  2.60980299606584 0 0  2.636030600971886 0 0  2.662501790984011 0 0  2.689218818279327 0 0  2.716183964547616 0 0  2.743399548861297 0 0  2.77086788244719 0 0  2.798591312896326 0 0  2.826572223178268 0 0  2.854812990138617 0 0  2.883316031690714 0 0  2.912083780657189 0 0  2.941118704633482 0 0  2.970423276998917 0 0  3 0.02999999999994495 0  3 0.05999999999987042 0  3 0.089999999999783 0  3 0.119999999999701 0  3 0.149999999999619 0  3 0.179999999999692 0  3 0.2099999999997737 0  3 0.2399999999998511 0  3 0.2699999999999185 0  2.970138294777171 0.3 0  2.940375666438236 0.3 0  2.910711782853056 0.3 0  2.881146331305122 0.3 0  2.851678975030285 0.3 0  2.822309388626621 0.3 0  2.793037250095074 0.3 0  2.76386223529133 0.3 0  2.734784017903872 0.3 0  2.705802289276642 0.3 0  2.676916713794697 0.3 0  2.648126987654635 0.3 0  2.619432780406184 0.3 0  2.590833779385199 0.3 0  2.562329669847737 0.3 0  2.533920134950189 0.3 0  2.505604855727852 0.3 0  2.477383539822502 0.3 0  2.449255847639465 0.3 0  2.421221492569094 0.3 0  2.393280152486815 0.3 0  2.36543151914496 0.3 0  2.337675285481809 0.3 0  2.310011142385583 0.3 0  2.282438797441587 0.3 0  2.254957931061538 0.3 0  2.227568248063605 0.3 0  2.200269436651085 0.3 0  2.173061204949961 0.3 0  2.145943251515011 0.3 0  2.118915272469994 0.3 0  2.091976978084957 0.3 0  2.065128060700849 0.3 0  2.038368218849433 0.3 0  2.01169717777258 0.3 0  1.985114624111908 0.3 0  1.958620267850966 0.3 0  1.93221382054972 0.3 0  1.905894991850698 0.3 0  1.879663489459713 0.3 0  1.853519019126419 0.3 0  1.827461291053897 0.3 0  1.801490031354372 0.3 0  1.775604937580312 0.3 0  1.74980572560258 0.3 0  1.724092118631866 0.3 0  1.698463829173586 0.3 0  1.672920575782554 0.3 0  1.647462076974085 0.3 0  1.622088043536933 0.3 0  1.5967981978949 0.3 0  1.571592267767068 0.3 0  1.546469970305736 0.3 0  1.521431023814044 0.3 0  1.496475156230927 0.3 0  1.471602093687753 0.3 0  1.446811560490646 0.3 0  1.422103279101731 0.3 0  1.397476971708191 0.3 0  1.37293238939876 0.3 0  1.348469231419202 0.3 0  1.324087248732772 0.3 0  1.299786165921677 0.3 0  1.275565710847046 0.3 0  1.251425617644257 0.3 0  1.227365618676339 0.3 0  1.203385446174014 0.3 0  1.179484853067473 0.3 0  1.155663548773374 0.3 0  1.131921292279077 0.3 0  1.108257802159295 0.3 0  1.084672829009693 0.3 0  1.061166115303374 0.3 0  1.037737392995421 0.3 0  1.01438640299116 0.3 0  0.991112899770314 0.3 0  0.9679166155523955 0.3 0  0.944797284182564 0.3 0  0.921754678526042 0.3 0  0.8987885143602501 0.3 0  0.8758985548820624 0.3 0  0.8530845484099929 0.3 0  0.8303462351786988 0.3 0  0.8076833651172373 0.3 0  0.7850956864865304 0.3 0  0.7625829601354557 0.3 0  0.7401449314598274 0.3 0  0.717781337993959 0.3 0  0.6954919649675473 0.3 0  0.6732765357561226 0.3 0  0.6511348120768439 0.3 0  0.6290665642016573 0.3 0  0.6070715355430467 0.3 0  0.5851494825775325 0.3 0  0.5633001690203812 0.3 0  0.5415233562273221 0.3 0  0.5198187909431873 0.3 0  0.4981862401387795 0.3 0  0.4766254686134248 0.3 0  0.4551362360485234 0.3 0  0.4337182975262159 0.3 0  0.4123714223228037 0.3 0  0.3910953802377493 0.3 0  0.3698899313205595 0.3 0  0.3487548463710963 0.3 0  0.3276898864081783 0.3 0  0.3066948129116018 0.3 0  0.2857694003037476 0.3 0  0.2649134227095047 0.3 0  0.2441266417321288 0.3 0  0.2234088223399122 0.3 0  0.2027597568977288 0.3 0  0.1821792020676698 0.3 0  0.1616669305402443 0.3 0  0.1412227158799362 0.3 0  0.12084633013886 0.3 0  0.1005375673448281 0.3 0  0.08029618164595353 0.3 0  0.06012194778526769 0.3 0  0.04001466495039718 0.3 0  0.01997408913631205 0.3 0  0 0.2800000000000553 0  0 0.2600000000001105 0  0 0.2400000000001658 0  0 0.2200000000002211 0  0 0.2000000000002764 0  0 0.1800000000002244 0  0 0.1600000000001691 0  0 0.140000000000115 0  0 0.1200000000000564 0  1.13346801534201 0.01255848438672509 0  1.003577645172735 0.09351054173913405 0  0.9777559943702486 0.1034978156913738 0  0.9524533750752109 0.1040889939962738 0  0.9296242411226409 0.1041520033606139 0  0.9046110503652111 0.104409422380137 0  0.8777709649694228 0.1053360318797398 0  0.8483859145648608 0.1061007868330701 0  0.8162363822948977 0.1052777104363292 0  0.7893110024210437 0.1060761643971561 0  0.7587949382612539 0.1067265405088633 0  0.7280603867732535 0.1069398153264939 0  0.6947001989413015 0.1075609887579097 0  0.6590363283767549 0.1076715322596598 0  0.6210028614493155 0.1072970410408442 0  1.1953125 0.01353164693413185 0  1.258193991486058 0.01269648635163345 0  1.3201967268638 0.01407907077719561 0  1.383538555392096 0.01434101079053473 0  1.445312500000001 0.01303671693628424 0  1.508925448095738 0.01398525724792267 0  0.9939176689634008 0.1034638089837981 0  1.120967497222226 0.2796788492172345 0  1.572835902117391 0.01424132418857359 0  1.637573277451887 0.01212536916586023 0  1.709730776795181 0.01466855431023635 0  1.005631976950563 0.07074019818158772 0  1.784944696816299 0.01454708406461822 0  0.5805605730631225 0.1101465090472147 0  1.855621181165637 0.01550931272897607 0  0.5366111276616774 0.1096761308243709 0  1.935200147913231 0.01760344159641829 0  1.214922267975168 0.2799787705802257 0  1.31178773425331 0.2792
[...]
<PointData  Scalars="pressure"> 
<DataArray  type="Float64"  Name="pressure"  format="ascii">1.5730570314476630e-01  -1.6588938828725497e-01  -2.1523068327840039e-01  -1.6126561898176450e-01  -4.0992566869532683e-02  0.0000000000000000e+00  0.0000000000000000e+00  1.5731295710451471e-01  1.5137958094842777e-01  1.4554894735027693e-01  1.3981223532670334e-01  1.3416792003064038e-01  1.2861448785679158e-01  1.2315045940250785e-01  1.1777440013099567e-01  1.1248483911953633e-01  1.0728038079586347e-01  1.0215963658840832e-01  9.7121200806689720e-02  9.2163723922740096e-02  8.7285891464658441e-02  8.2486340074102354e-02  7.7763771488826183e-02  7.3116971437426459e-02  6.8544542987126186e-02  6.4045293398207276e-02  5.9617980435298368e-02  5.5261303362229681e-02  5.0974097794688922e-02  4.6755234745299294e-02  4.2603362633612259e-02  3.8517401590297991e-02  3.4496063047178352e-02  3.0538247943534692e-02  2.6642913189389321e-02  2.2808786603472929e-02  1.9034687954174886e-02  1.5319569291013895e-02  1.1662299157894459e-02  8.0616832084230566e-03  4.5167279465779080e-03  1.0261973797874085e-03  -2.4109308505764859e-03  -5.7958360966175329e-03  -9.1295946244512524e-03  -1.2412884523801040e-02  -1.5647535890128135e-02  -1.8834167637970235e-02  -2.1973891863539267e-02  -2.5068002270294105e-02  -2.8117522624364087e-02  -3.1122890086399901e-02  -3.4086185755530483e-02  -3.7007892146684963e-02  -3.9889140937775826e-02  -4.2731077787413987e-02  -4.5534704106667802e-02  -4.8301078236762975e-02  -5.1031396405808838e-02  -5.3726604547459672e-02  -5.6387680151875320e-02  -5.9015587677378335e-02  -6.1611930552523814e-02  -6.4177094264646475e-02  -6.6712370277771230e-02  -6.9218425201761136e-02  -7.1697312130591148e-02  -7.4149477029448421e-02  -7.6575154596023584e-02  -7.8976123106888882e-02  -8.1353992544201004e-02  -8.3708453692759213e-02  -8.6041616834686752e-02  -8.8354230998631447e-02  -9.0646581317078395e-02  -9.2920295268519068e-02  -9.5176295127043370e-02  -9.7415532948186459e-02  -9.9639804894013514e-02  -1.0184920245933514e-01  -1.0404422964264755e-01  -1.0622554904828763e-01  -1.0839673234688224e-01  -1.1055685815747471e-01  -1.1270663741116670e-01  -1.1484802391633166e-01  -1.1698144199848848e-01  -1.1910789826629274e-01  -1.2122855492105002e-01  -1.2334539112220025e-01  -1.2545891184994495e-01  -1.2756939788001789e-01  -1.2967934110256246e-01  -1.3178971870727216e-01  -1.3390176064660336e-01  -1.3601696519011552e-01  -1.3813668470799914e-01  -1.4026272576054330e-01  -1.4239698593025754e-01  -1.4454161157542658e-01  -1.4669898961848243e-01  -1.4887076280598560e-01  -1.5105988545430479e-01  -1.5325814472906107e-01  -1.5563964580898965e-01  -1.5712902233746140e-01  -1.6104622929359830e-01  -1.5961936958736420e-01  -1.6439973710669034e-01  -1.6126817365274290e-01  -2.0292488966891137e-01  -1.8163902696029266e-01  -1.7508072164745520e-01  -1.7030205324314859e-01  -1.6707319384612798e-01  -1.6464917025359160e-01  -1.6283319242028571e-01  -1.6150258588235403e-01  -1.6070362424984019e-01  -1.6050797713254117e-01  -1.6091383148976066e-01  -1.6170605511242775e-01  -1.6208037831986893e-01  -1.6187421294218249e-01  -1.6120260610939280e-01  -1.6015611085795339e-01  -1.5877849669937169e-01  -1.5705488122685404e-01  -1.5497257884583293e-01  -1.5256079385090432e-01  -1.4983705541545919e-01  -1.4680552867673580e-01  -1.4348013263132606e-01  -1.3987217373842936e-01  -1.3599390772347011e-01  -1.3186588788495646e-01  -1.2750122791149665e-01  -1.2291252261567219e-01  -1.1811823424800987e-01  -1.1313733886166082e-01  -1.0798068376022332e-01  -1.0267804351512848e-01  -9.7247808754990520e-02  -9.1705875792852914e-02  -8.6082850660545482e-02  -8.0397036813229433e-02  -7.4677745504061047e-02  -6.8947124796928813e-02  -6.3227497235671712e-02  -5.7550176499053307e-02  -5.1935754231185537e-02  -4.6409828880844460e-02  -3.5608608060646633e-02  -3.0342187277962850e-02  -2.5202677679249597e-02  -2.0223622428245148e-02  -1.5431426321639512e-02  -1.0828342995210015e-02  -6.4404784118202692e-03  -2.2729758766687354e-03  1.6259451893777719e-03  5.2801240711023920e-03  8.6894651874308976e-03  1.1833019298610565e-02  1.4713020256590107e-02  1.7336458400298783e-02  1.9707244566411132e-02  2.1830378368626058e-02  2.3721109540752204e-02  2.5379961945135324e-02  2.6821022238840236e-02  2.8074617450186225e-02  2.9129249899881308e-02  3.0014761094983525e-02  3.0744607237172105e-02  3.1326677039560005e-02  3.1782161001211388e-02  3.2115295498852704e-02  3.2357084554254581e-02  3.2497904952565770e-02  3.2558575147811734e-02  3.2543884535980575e-02  3.2461496948862578e-02  3.2320716631631413e-02  3.2130703173697352e-02  3.1895472625609690e-02  3.1615658854738375e-02  3.1298391791218967e-02  3.0944272560088384e-02  3.0555977326720989e-02  3.0134511738497211e-02  2.9680235956369795e-02  2.9193481646369333e-02  2.8674125953462883e-02  2.8120881363923479e-02  2.7534048490324183e-02  2.6911070357975395e-02  2.6250618950484035e-02  2.5553845516180920e-02  2.4815879060974596e-02  2.4034755906639633e-02  2.3214941895488415e-02  2.2346832536474535e-02  2.1437605752431407e-02  2.0476721700875757e-02  1.9473135754676789e-02  1.8419040425215683e-02  1.7310690894330346e-02  1.6158616112096031e-02  1.4948623520119149e-02  1.3692136748872414e-02  1.2383055902317438e-02  1.1020389647402797e-02  9.6041219487017476e-03  8.1363887592149093e-03  6.6203830363122333e-03  5.0467160976907987e-03  3.4329126384528273e-03  1.7628375085637577e-03  0.0000000000000000e+00  0.0000000000000000e+00  0.0000000000000000e+00  0.0000000000000000e+00  0.0000000000000000e+00  0.0000000000000000e+00  0.0000000000000000e+00  0.0000000000000000e+00  0.0000000000000000e+00  1.9100756453035654e-03  3.6934110497931598e-03  5.4489959120546860e-03  7.1516748066202656e-03  8.8051899341206954e-03  1.0408233314554876e-02  1.1959854862557590e-02  1.3458336548899970e-02  1.4900824510927991e-02  1.6285101703989554e-02  1.7607181509898193e-02  1.8864584177214930e-02  2.0052268713770551e-02  2.1167254716068465e-02  2.2204746712210247e-02  2.3158166917509285e-02  2.4027168352037585e-02  2.4800668527276953e-02  2.5474044971164862e-02  2.6041186863277593e-02  2.6495269245380849e-02  2.6829697578653552e-02  2.7038847238098882e-02  2.7111948989537626e-02  2.7047523054686565e-02  2.6833754647080994e-02  2.6468523430419603e-02  2.5940490103159419e-02  2.5244541316290850e-02  2.4377998201427862e-02  2.3330104382614826e-02  2.2095348933664806e-02  2.0688653569585231e-02  1.9095585686506166e-02  1.7290198017304650e-02  1.5312402976672638e-02  1.3139202350769668e-02  1.0771150732024972e-02  8.2097127745806939e-03  5.4625077033378742e-03  2.5205695846629733e-03  -6.0226384384257266e-04  -3.9144246545997231e-03  -7.4053143706259497e-03  -1.1086085241310393e-02  -1.4940753686772027e-02  -1.8970580023723375e-02  -2.3166309730987236e-02  -2.7531177848925434e-02  -3.2051005279121324e-02  -3.6722876962709199e-02  -4.1535203442840007e-02  -4.6474493502469495e-02  -5.1532027821305483e-02  -5.6692069540676716e-02  -6.1931092868946311e-02  -6.7190385209177653e-02  -7.2516303234109639e-02  -7.7824180380241276e-02  -8.3055388743066644e-02  -8.8214140561753931e-02  -9.3229624905910760e-02  -9.8083530318329670e-02  -1.0267081568638552e-01  -1.0698580564485255e-01  -1.1092044260798027e-01  -1.1446321986872762e-01  -1.1750494775657869e-01  -1.2005016946266098e-01  -1.2196744700593200e-01  -1.2327205163608401e-01  -1.2389143442825683e-01  -1.2369611093493922e-01  -1.2285642972652527e-01  -1.2123397786992625e-01  -1.1883465917069727e-01  -1.1577413320825350e-01  -1.1207389362221365e-01  -1.0785993820644563e-01  -1.0320128395190842e-01  -9.8097425539435235e-02  -9.2686809731185857e-02  -8.7009177061826551e-02  -8.1159092400740040e-02  -7.5141113047804908e-02  -6.8983916066139545e-02  -6.2741073742672807e-02  -5.6425924005178575e-02  -5.0049896373376805e-02  -4.3637108173286226e-02  -3.7192794899051536e-02  -3.0735689118537603e-02  -2.4268772275211084e-02  -1.7794700902457376e-02  -1.1325143599172431e-02  -4.8613613232693217e-03  1.5953907230626069e-03  8.0415713848725999e-03  1.4474021494708760e-02  2.0891564844296995e-02  2.7293667035956249e-02  3.3678771399979553e-02  4.0046681905010754e-02  4.6395766767309943e-02  5.2726381345052226e-02  5.9037790961707748e-02  6.5329718117925414e-02  7.1602065527677478e-02  7.7854519672095904e-02  8.4087029339277988e-02  9.0299558103054872e-02  9.6492007773737135e-02  1.0266435104443210e-01  1.0881658740187479e-01  1.1494872767537404e-01  1.2106074968755838e-01  1.2715272432297633e-01  1.3322467177484765e-01  1.3927662072175484e-01  1.4530862538571246e-01  1.5132072046097339e-01  1.5731292905499816e-01  1.5731262745929392e-01  1.5731189107154439e-01  1.5731073524920935e-01  1.5730933137085099e-01  1.5730792604429891e-01  1.5730676780643169e-01  1.5730602651102746e-01  1.5730572599660017e-01  -1.5340428152281688e-01  -1.8606882728216267e-01  -1.5939043762425972e-01  -1.4565571209595596e-01  -1.3506329427701022e-01  -1.2448076576766122e-01  -1.1395616230898287e-01  -1.0312126818915641e-01  -9.1854219342801066e-02  -8.2776478765639747e-02  -7.2768050889064531e-02  -6.2912305160779280e-02  -5.2401782079229187e-02  -4.1318779877670388e-02  -2.9623183559307285e-02  -1.4153523411345634e-01  -1.2508336058479458e-01  -1.0546899824972747e-01  -8.3179427111405121e-02  -6.0657528387776341e-02  -3.8328574815066851e-02  -1.7211806907731036e-01  -1.2203696964894743e-01  -1.8213802050298187e-02  -1.2574044741716019e-03  1.2863363258224602e-02  -1.6654800129105204e-01  2.2713174569634925e-02  -1.7285345452341890e-02  2.8219247478311563e-02  -3.9512927236154292e-03  3.1331314814445774e-02  -1.1213194269386768e-01  -9.5027853481632188e-02  3.2410939786330480e-02  -7.4738826469628705e-02  9.8622249723265085e-03  -4.8603166465692085e-02  3.2137295716947900e-02  2.4724378698807777e-02  -1.5898320314961273e-01  3.1049851871609586e-02  -2.5118940106468268e-02  -1.2281625630038411e-01  4.0128184422840954e-02  2.9385790025268713e-02  -2.2019178681072660e-03  5.7626566384736906e-02  6.7002149792119671e-03  2.7157577917049147e-02  1.4325129434542913e-02  7.4917974594651937e-02  -1.1700731693738342e-01  2.4438195014981737e-02  1.9880430167266698e-02  -1.0541839832086641e-01  2.3860765162869679e-02  2.0936965387884920e-02  -8.9842227225486904e-02  9.5118343243618952e-02  1.0913551716995980e-01  -1.2905161315312537e-02  1.7833907829726513e-02  1.4147425041338367e-02  2.6133563605054519e-02  -7.2267562975225644e-02  2.6971710222010361e-02  -1.5213770049327091e-01  -4.7284725970604305e-02  2.6169499135087225e-02  1.2658735334801077e-01  -2.7540470770196848e-02  1.0283551313817460e-02  2.3526304842362615e-02  -7.9725132179077323e-03  1.7849916294761254e-02  2.0542446096966729e-02  4.9561710300408478e-02  1.6888398805922071e-02  6.8522182812277385e-02  8.7299289888360651e-02  1.2665782756788183e-02  1.1889906676994713e-01  1.6014287202835418e-03  1.5172937789524565e-01  -1.6170046249944026e-01  8.0743440273853984e-03  5.7114852258562717e-03  1.3670164053010933e-01  -1.7308466319235008e-01  -1.6104555036933010e-01  -1.1817381502852953e-01  -5.9490762642064120e-02  4.3247644537806060e-03  3.0154086297180249e-02  1.3704161394594913e-01  -3.9248054672418216e-02  -6.3846259813874581e-02  -8.5010337339019013e-02  -1.0417137872506839e-01  8.5180594950610561e-02  2.6842110469121955e-02  6.6007103639218856e-02  9.9540739155157723e-02  2.5051095067217786e-02  2.2773398728141214e-02  4.8304651497124144e-02  2.5794669165948761e-02  2.8354234598487810e-02  3.2766368540942878e-02  3.0285538482288939e-02  3.1678578266121665e-02  3.2403025727785383e-02  3.2103373826034780e-02  -2.8136356034564807e-02  1.7175344713243723e-02  3.0081077466884449e-02  2.5798275109295402e-02  2.7881782139175079e-03  1.8396945679486559e-02  6.6094732483101271e-03  -8.8725468576272611e-03  1.3365262972286703e-03  -1.1135479995401570e-02  -2.3073905888098167e-02  1.5206916999005979e-01  -3.5237757964647370e-02  -4.6929790000067105e-02  -5.7717741337743177e-02  -6.8079293238948055e-02  -7.7851801142903007e-02  -8.7124755182052496e-02  -1.4793849013530874e-01  -9.8573138442412778e-02  -1.0953144335625736e-01  -1.2024289719129241e-01  -1.3386815599978666e-01  -1.3089709632216742e-01  -9.4811786925364391e-02  -1.1517180371055481e-01  -7.2883626391358147e-02  -4.9483991212678366e-02  -1.4144770488362346e-01  -1.6167500196141404e-01  1.6789232449231078e-03  1.5157258571353538e-01  4.5006937308174101e-03  -1.6147697540601075e-01  1.5232108474046080e-01  1.3631923353806064e-03  1.4821694116193018e-01  -1.6144415109627780e-01  -1.6110554998097446e-01  -1.6064494833686696e-01  -1.6114615054005849e-01  -1.6066791911765735e-01  -1.6149683658492209e-01  -1.6083738601813374e-01  -1.6195031705014920e-01  -1.6112033242526275e-01  -1.6227071746130517e-01  -1.6132202009272584e-01  -1.6219568010247915e-01  -1.6105163371909664e-01  -1.6156213820246521e-01  -1.6028044406334521e-01  -1.6047578852770841e-01  -1.5901841588130450e-01  -1.5899850616334665e-01  -1.5737244195451405e-01  -1.5696897533869944e-01  -1.5503838149993265e-01  -1.5865230793034549e-01  -1.5554277049740725e-01  -1.5282303550782922e-01  -1.5595785870601361e-01  -1.5791810039574597e-01  -1.5309999094637516e-01  -1.5023820226661652e-01  -1.5043734851870044e-01  -1.4721357288035397e-01  -1.4729510732881429e-01  -1.4375502267372417e-01  -1.4375246171831113e-01  -1.4014070568769410e-01  -1.3980602214912391e-01  -1.3547272766862775e-01  -1.3524138759281082e-01  -1.3108507641108846e-01  -1.3043529648086055e-01  -1.2612153749087487e-01  -1.2523385955823196e-01  -1.2083572954149498e-01  -1.1972352643234971e-01  -1.1528871599739622e-01  -1.1391292761106263e-01  -1.0951034879498514e-01  -1.0783617795575538e-01  -1.0351708510078700e-01  -1.0155815649769777e-01  -9.7387409683712525e-02  -9.5094140405587835e-02  -9.1159404133774796e-02  -8.8411599617887845e-02  -1.5415777475306816e-01  -1.5595011580790463e-01  -8.4851574897658391e-02  -8.1684381521197710e-02  -7.8541389315852694e-02  -7.5382348537220395e-02  -7.2326337429939047e-02  -6.8821316005654540e-02  -6.6209754236090337e-02  -6.2384183082200402e-02  -1.4915348805366638e-01  -6.0304448444293411e-02  -5.6062237752930080e-02  -5.4317706902583647e-02  -4.9872668846830032e-02  -4.8733782331138550e-02  -4.3962365015474660e-02  -1.5139680416506762e-01  -1.5334624534569993e-01  -1.6269535030371268e-01  -4.3294161075953748e-02  -3.8246587771869643e-02  -3.8128330644602769e-02  -3.2811431548552657e-02  -3.3217398907755831e-02  -2.7687865534876385e-02  -1.5923885408314301e-01  -2.8578870291258267e-02  -2.2843640415171198e-02  -1.3946856779595235e-01  -2.4198659755627534e-02  -1.8325467528237733e-02  -2.0108241507221659e-02  -1.4125574925413293e-02  -1.6225894265349726e-02  -1.0234762482378647e-02  -1.5964664996774547e-01  -1.2604940798099812e-01  -1.2674612519404084e-02  -6.6537803426847788e-03  -1.4770760089637280e-01  -1.4894323501778517e-01  -1.4611407164526050e-01  -1.1021463833498481e-01  -9.3126860216648701e-03  -3.2233727955398232e-03  -6.2905473412460536e-03  -1.4328845264455182e-04  -3.4188031527648405e-03  2.5246219486745624e-03  -3.9031575485406637e-02  -4.6317564539032324e-04  -2.2209610256588533e-02  -5.8261354597634346e-02  -7.5784497733139911e-04  4.9710660932459219e-03  8.2447797377270989e-03  1.0535690212375100e-02  7.2602125189241244e-03  1.2603045295783556e-02  9.4192518343623587e-03  1.4533542472306355e-02  1.1368856771919006e-02  1.6216038675159940e-02  1.3154872391295954e-02  1.7766810284096022e-02  1.4835821477120183e-02  1.9130351504672998e-02  1.6294205547016084e-02  2.0376754685055027e-02  1.7750987654576056e-02  2.1614686107993147e-02  1.9052049722610851e-02  2.2632433876985235e-02  2.0277713032152474e-02  2.3517392106554551e-02  2.1259346282385998e-02  2.4323336033116580e-02  -7.8246518988534797e-02  -9.3237678479456826e-02  2.2262379743216747e-02  2.5004019490699147e-02  2.3213125242639947e-02  2.5651323533143800e-02  -1.4654114709340541e-01  -1.1175182591479735e-01  2.4059981898246367e-02  2.6186463989111123e-02  -1.2888309417543509e-01  -7.5953398584993712e-02  -1.4311137812428476e-01  -1.4392682105717944e-01  -1.5053081771527488e-01  -1.4438760728268049e-01  -1.4992684505747589e-01  -1.4413134778915998e-01  -1.4999138989772748e-01  -1.4333304504220012e-01  -1.4744305843956471e-01  -1.4152045557565948e-01  -1.4573365694120688e-01  -1.3930033844813405e-01  -1.4198400550952153e-01  -1.3641002627901067e-01  -1.3839500493455079e-01  -1.3331633332573689e-01  -1.3466218689454348e-01  -1.2993909508516804e-01  -1.3085451055505401e-01  -1.2646488226000924e-01  -1.2699753604405087e-01  -1.2288349111911682e-01  -1.2314875062154999e-01  -1.1926967185930248e-01  -1.1930585060432208e-01  -1.1567500769691264e-01  -1.1515248691719211e-01  -1.1179394159559113e-01  -1.1196100358831895e-01  -1.0835163536682804e-01  -1.0810565409908353e-01  -1.0474201613576603e-01  -1.0451074738040643e-01  -1.0117548196741638e-01  -1.0068198088018183e-01  -9.7546429852661015e-02  -1.3113276379139457e-01  -1.0805188620227663e-01  -1.2191873295661236e-01  -9.6986185860054003e-02  -9.3838780599964575e-02  -9.4161556092267409e-02  -9.0627552321406207e-02  -9.0090528464737946e-02  -8.7012240882651831e-02  -8.6297351497019364e-02  -8.3341116890861489e-02  -8.2519608991898322e-02  -7.9612465658540202e-02  -8.6814091069904398e-02  -1.5505012263942650e-01  -1.4738171238894754e-01  -7.8802994831352016e-02  -7.5827279675138332e-02  -7.6595237574782385e-02  -7.2816084387984356e-02  -7.2018321423808762e-02  -6.9056038268317507e-02  -6.8152808436397511e-02  -6.5270611825265182e-02  -1.3937355058103285e-01  -6.9591818645681341e-02  -6.4310729733369085e-02  -6.1499513057777858e-02  -1.3103242646279351e-01  -6.0582892618740516e-02  -5.7672685024370118e-02  -5.8862526529217404e-02  -5.4714848383354192e-02  -5.3736910496098390e-02  -5.0667282383174347e-02  -5.1604110577748767e-02  -4.7558467039038689e-02  -4.6637481264157066e-02  -4.3521558075853395e-02  -4.2592299053444825e-02  -3.9391433405213852e-02  -4.0346118175031594e-02  -3.6219177859280582e-02  -3.5235341792912350e-02  -3.2087861768219941e-02  -3.1143232076439903e-02  -2.7974453334364012e-02  -1.3903676766356207e-01  -1.0779287494479028e-01  -1.2280299683974895e-01  -2.7124119194797097e-02  -2.3893296020613974e-02  -2.4756045975926785e-02  -2.0521414639661850e-02  -1.9664230156627757e-02  -1.6292857984737393e-02  -2.1383029702890865e-02  2.4733335742639966e-02  2.6633048883023720e-02  2.5346631303378706e-02  2.7011763202022709e-02  2.5894184235828292e-02  2.7318049637100848e-02  -8.9406313650461061e-02  -4.8301068167379425e-02  -1.6251973537513137e-01  -1.5404068829142204e-02  -1.2099773722017780e-02  -1.0000438570713907e-01  2.2132251398200440e-02  2.6372207011093447e-02  1.3278091940340235e-02  2.6350326116317432e-02  2.7543234814074193e-02  2.8596907630932897e-02  2.8603714293162368e-02  2.7693440609976853e-02  2.8557558654284866e-02  2.7776181751581638e-02  2.8452024437329481e-02  2.7776299139184148e-02  2.8279053681599997e-02  2.7704095751915934e-02  2.8047784504732193e-02  2.7548065498616318e-02  2.7744717626815147e-02  2.7315761002232777e-02  2.7381996824597021e-02  2.7010829016920472e-02  2.6957698958371721e-02  2.6636640312942557e-02  2.6474267174977934e-02  2.6182806857242485e-02  2.5916482808000810e-02  2.5647312138519136e-02  2.5307407987341976e-02  2.5034856740299594e-02  2.4611451307609875e-02  2.4362674594101130e-02  2.3875490682596246e-02  2.3596945774534327e-02  2.3053980284096259e-02  2.2774702387666976e-02  2.2184998671332803e-02  2.8206535751792570e-02  -3.7241192667406699e-02  -7.1150715998955130e-02  -1.1088908494555660e-02  -7.7973786808429955e-03  -8.7991711647361585e-03  -4.3453723751836117e-03  -5.3915352134979626e-03  -8.3430015520880941e-04  9.1637220352150389e-05  3.6224405307687386e-03  4.6681004395248233e-03  8.1713589868455377e-03  7.2230946036161104e-03  1.1760149979053003e-02  1.2566295559668194e-02  1.6261966648060643e-02  1.705411163662449