<?xml version="1.0"?>
<VTKFile type="UnstructuredGrid"  version="0.1"  >
<UnstructuredGrid>
<Piece  NumberOfPoints="2886" NumberOfCells="5412">
<Points>
<DataArray  type="Float64"  NumberOfComponents="3"  format="ascii">0 0.1 0  0.98 0.1 0  1 0.1 0  1 0 0  1.5 0 0  3 0 0  3 0.3 0  0 0.3 0  0.01975375321854102 0.1 0  0.03918897458218897 0.1 0  0.05831079002627837 0.1 0  0.07712425666319796 0.1 0  0.0956343475259058 0.1 0  0.1138459546796227 0.1 0  0.1317638870668193 0.1 0  0.1493928840275937 0.1 0  0.1667376092280033 0.1 0  0.1838026357802664 0.1 0  0.2005924801287244 0.1 0  0.2171115811543574 0.1 0  0.2333643037107681 0.1 0  0.2493549444060462 0.1 0  0.2650877293306821 0.1 0  0.2805668058011438 0.1 0  0.2957962848620976 0.1 0  0.3107801766802674 0.1 0  0.3255224447361181 0.1 0  0.3400269848175519 0.1 0  0.3542976327080778 0.1 0  0.3683381609158136 0.1 0  0.3821522744564845 0.1 0  0.3957436316838916 0.1 0  0.4091158196437086 0.1 0  0.4222723742184605 0.1 0  0.4352167733293057 0.1 0  0.4479524348643424 0.1 0  0.4604827295467524 0.1 0  0.4728109659990664 0.1 0  0.4849404035409129 0.1 0  0.4968742471455402 0.1 0  0.508615651843175 0.1 0  0.520167721130924 0.1 0  0.5315335063628542 0.1 0  0.5427160117228604 0.1 0  0.5537181940261912 0.1 0  0.564542961924507 0.1 0  0.575193173270606 0.1 0  0.5856716438765114 0.1 0  0.5959811458006617 0.1 0  0.6061243988680743 0.1 0  0.6161040893285659 0.1 0  0.6259228503970299 0.1 0  0.6355832809287655 0.1 0  0.6450879281079505 0.1 0  0.6544393102991295 0.1 0  0.663639896558931 0.1 0  0.6726921201956305 0.1 0  0.6815983691630338 0.1 0  0.6903610031396646 0.1 0  0.6989823343332418 0.1 0  0.7074646404270378 0.1 0  0.7158101645005117 0.1 0  0.7240211149852543 0.1 0  0.7320996585612525 0.1 0  0.7400479319727645 0.1 0  0.7478680336617921 0.1 0  0.755562036504958 0.1 0  0.7631319665092091 0.1 0  0.7705798279317605 0.1 0  0.777907588066146 0.1 0  0.7851171851013118 0.1 0  0.7922105226004981 0.1 0  0.7991894774550319 0.1 0  0.8060558928136696 0.1 0  0.812811583201334 0.1 0  0.8194583352091183 0.1 0  0.8259979035038147 0.1 0  0.8324320194413813 0.1 0  0.8387623808293405 0.1 0  0.8449906627004957 0.1 0  0.8511185094880469 0.1 0  0.8571475426008311 0.1 0  0.8630793533568246 0.1 0  0.8689155114558531 0.1 0  0.8746575581239063 0.1 0  0.8803070109173519 0.1 0  0.885865363938836 0.1 0  0.8913340851680313 0.1 0  0.8967146206523592 0.1 0  0.9020083930695622 0.1 0  0.9072167995950768 0.1 0  0.9123412183131177 0.1 0  0.9173830029719022 0.1 0  0.9223434865647732 0.1 0  0.9272239785872722 0.1 0  0.9320257720706087 0.1 0  0.9367501330378739 0.1 0  0.9413983102716995 0.1 0  0.9459715351562933 0.1 0  0.9504710127113115 0.1 0  0.9548979346500661 0.1 0  0.9592534708344373 0.1 0  0.9635387708980176 0.1 0  0.9677549682252325 0.1 0  0.971903177251235 0.1 0  0.9759844952956497 0.1 0  0.9840000000000086 0.1 0  0.987999999999974 0.1 0  0.9919999999999393 0.1 0  0.9959999999999913 0.1 0  1 0.09591793123533533 0  1 0.09133596463859224 0  1 0.08619288104391448 0  1 0.08041996484521211 0  1 0.07394008421771697 0  1 0.06666666567302955 0  1 0.05850252932209174 0  1 0.04933859630113544 0  1 0.03905242821848202 0  1 0.02750659386753798 0  1 0.01454683679239736 0  1.015625 0 0  1.03125 0 0  1.046875 0 0  1.0625 0 0  1.078125 0 0  1.09375 0 0  1.109375 0 0  1.125 0 0  1.140625 0 0  1.15625 0 0  1.171875 0 0  1.1875 0 0  1.203125 0 0  1.21875 0 0  1.234375 0 0  1.25 0 0  1.265625 0 0  1.28125 0 0  1.296875 0 0  1.3125 0 0  1.328125 0 0  1.34375 0 0  1.359375 0 0  1.375 0 0  1.390625 0 0  1.40625 0 0  1.421875 0 0  1.4375 0 0  1.453125 0 0  1.46875 0 0  1.484375 0 0  1.515920751924515 0 0  1.531989369316721 0 0  1.54820720925872 0 0  1.564575665560501 0 0  1.581096138674279 0 0  1.597770029901263 0 0  1.614598783332311 0 0  1.631583831055205 0 0  1.64872661129721 0 0  1.666028606716533 0 0  1.683491276608443 0 0  1.701116134125304 0 0  1.718904673324128 0 0  1.736858414799339 0 0  1.754978895814663 0 0  1.773267661782904 0 0  1.791726281103402 0 0  1.810356325314689 0 0  1.8291593848892 0 0  1.848137076690385 0 0  1.867291007717254 0 0  1.886622833871288 0 0  1.90613418642363 0 0  1.925826753299799 0 0  1.945702199101513 0 0  1.96576223584749 0 0  1.986008569283268 0 0  2.006442931928877 0 0  2.02706707547783 0 0  2.047882750887917 0 0  2.06889175187935 0 0  2.090095860038271 0 0  2.111496891648636 0 0  2.133096679109554 0 0  2.154897066851056 0 0  2.176899916687499 0 0  2.199107102752146 0 0  2.22152053937028 0 0  2.244142122958061 0 0  2.266973806444078 0 0  2.290017523268154 0 0  2.313275249499252 0 0  2.336748971745516 0 0  2.360440702338606 0 0  2.384352453384031 0 0  2.408486280477412 0 0  2.432844240041185 0 0  2.457428414757088 0 0  2.482240901796653 0 0  2.507283830121838 0 0  2.532559332080812 0 0  2.558069568787417 0 0  2.583816724966441 0 0  2.60980299606584 0 0  2.636030600971886 0 0  2.662501790984011 0 0  2.689218818279327 0 0  2.716183964547616 0 0  2.743399548861297 0 0  2.77086788244719 0 0  2.798591312896326 0 0  2.826572223178268 0 0  2.854812990138617 0 0  2.883316031690714 0 0  2.912083780657189 0 0  2.941118704633482 0 0  2.970423276998917 0 0  3 0.02999999999994495 0  3 0.05999999999987042 0  3 0.089999999999783 0  3 0.119999999999701 0  3 0.149999999999619 0  3 0.179999999999692 0  3 0.2099999999997737 0  3 0.2399999999998511 0  3 0.2699999999999185 0  2.970138294777171 0.3 0  2.940375666438236 0.3 0  2.910711782853056 0.3 0  2.881146331305122 0.3 0  2.851678975030285 0.3 0  2.822309388626621 0.3 0  2.793037250095074 0.3 0  2.76386223529133 0.3 0  2.734784017903872 0.3 0  2.705802289276642 0.3 0  2.676916713794697 0.3 0  2.648126987654635 0.3 0  2.619432780406184 0.3 0  2.590833779385199 0.3 0  2.562329669847737 0.3 0  2.533920134950189 0.3 0  2.505604855727852 0.3 0  2.477383539822502 0.3 0  2.449255847639465 0.3 0  2.421221492569094 0.3 0  2.393280152486815 0.3 0  2.36543151914496 0.3 0  2.337675285481809 0.3 0  2.310011142385583 0.3 0  2.282438797441587 0.3 0  2.254957931061538 0.3 0  2.227568248063605 0.3 0  2.200269436651085 0.3 0  2.173061204949961 0.3 0  2.145943251515011 0.3 0  2.118915272469994 0.3 0  2.091976978084957 0.3 0  2.065128060700849 0.3 0  2.038368218849433 0.3 0  2.01169717777258 0.3 0  1.985114624111908 0.3 0  1.958620267850966 0.3 0  1.93221382054972 0.3 0  1.905894991850698 0.3 0  1.879663489459713 0.3 0  1.853519019126419 0.3 0  1.827461291053897 0.3 0  1.801490031354372 0.3 0  1.775604937580312 0.3 0  1.74980572560258 0.3 0  1.724092118631866 0.3 0  1.698463829173586 0.3 0  1.672920575782554 0.3 0  1.647462076974085 0.3 0  1.622088043536933 0.3 0  1.5967981978949 0.3 0  1.571592267767068 0.3 0  1.546469970305736 0.3 0  1.521431023814044 0.3 0  1.496475156230927 0.3 0  1.471602093687753 0.3 0  1.446811560490646 0.3 0  1.422103279101731 0.3 0  1.397476971708191 0.3 0  1.37293238939876 0.3 0  1.348469231419202 0.3 0  1.324087248732772 0.3 0  1.299786165921677 0.3 0  1.275565710847046 0.3 0  1.251425617644257 0.3 0  1.227365618676339 0.3 0  1.203385446174014 0.3 0  1.179484853067473 0.3 0  1.155663548773374 0.3 0  1.131921292279077 0.3 0  1.108257802159295 0.3 0  1.084672829009693 0.3 0  1.061166115303374 0.3 0  1.037737392995421 0.3 0  1.01438640299116 0.3 0  0.991112899770314 0.3 0  0.9679166155523955 0.3 0  0.944797284182564 0.3 0  0.921754678526042 0.3 0  0.8987885143602501 0.3 0  0.8758985548820624 0.3 0  0.8530845484099929 0.3 0  0.8303462351786988 0.3 0  0.8076833651172373 0.3 0  0.7850956864865304 0.3 0  0.7625829601354557 0.3 0  0.7401449314598274 0.3 0  0.717781337993959 0.3 0  0.6954919649675473 0.3 0  0.6732765357561226 0.3 0  0.6511348120768439 0.3 0  0.6290665642016573 0.3 0  0.6070715355430467 0.3 0  0.5851494825775325 0.3 0  0.5633001690203812 0.3 0  0.5415233562273221 0.3 0  0.5198187909431873 0.3 0  0.4981862401387795 0.3 0  0.4766254686134248 0.3 0  0.4551362360485234 0.3 0  0.4337182975262159 0.3 0  0.4123714223228037 0.3 0  0.3910953802377493 0.3 0  0.3698899313205595 0.3 0  0.3487548463710963 0.3 0  0.3276898864081783 0.3 0  0.3066948129116018 0.3 0  0.2857694003037476 0.3 0  0.2649134227095047 0.3 0  0.2441266417321288 0.3 0  0.2234088223399122 0.3 0  0.2027597568977288 0.3 0  0.1821792020676698 0.3 0  0.1616669305402443 0.3 0  0.1412227158799362 0.3 0  0.12084633013886 0.3 0  0.1005375673448281 0.3 0  0.08029618164595353 0.3 0  0.06012194778526769 0.3 0  0.04001466495039718 0.3 0  0.01997408913631205 0.3 0  0 0.2800000000000553 0  0 0.2600000000001105 0  0 0.2400000000001658 0  0 0.2200000000002211 0  0 0.2000000000002764 0  0 0.1800000000002244 0  0 0.1600000000001691 0  0 0.140000000000115 0  0 0.1200000000000564 0  1.13346801534201 0.01255848438672509 0  1.003577645172735 0.09351054173913405 0  0.9777559943702486 0.1034978156913738 0  0.9524533750752109 0.1040889939962738 0  0.9296242411226409 0.1041520033606139 0  0.9046110503652111 0.104409422380137 0  0.8777709649694228 0.1053360318797398 0  0.8483859145648608 0.1061007868330701 0  0.8162363822948977 0.1052777104363292 0  0.7893110024210437 0.1060761643971561 0  0.7587949382612539 0.1067265405088633 0  0.7280603867732535 0.1069398153264939 0  0.6947001989413015 0.1075609887579097 0  0.6590363283767549 0.1076715322596598 0  0.6210028614493155 0.1072970410408442 0  1.1953125 0.01353164693413185 0  1.258193991486058 0.01269648635163345 0  1.3201967268638 0.01407907077719561 0  1.383538555392096 0.01434101079053473 0  1.445312500000001 0.01303671693628424 0  1.508925448095738 0.01398525724792267 0  0.9939176689634008 0.1034638089837981 0  1.120967497222226 0.2796788492172345 0  1.572835902117391 0.01424132418857359 0  1.637573277451887 0.01212536916586023 0  1.709730776795181 0.01466855431023635 0  1.005631976950563 0.07074019818158772 0  1.784944696816299 0.01454708406461822 0  0.5805605730631225 0.1101465090472147 0  1.855621181165637 0.01550931272897607 0  0.5366111276616774 0.1096761308243709 0  1.935200147913231 0.01760344159641829 0  1.214922267975168 0.2799787705802257 0  1.31178773425331 0.2792
[...]
<PointData  Scalars="pressure"> 
<DataArray  type="Float64"  Name="pressure"  format="ascii">1.5738106655145268e-01  -1.6567062694567281e-01  -2.1464787210203598e-01  -1.6081220573795577e-01  -3.9611433619313963e-02  0.0000000000000000e+00  0.0000000000000000e+00  1.5738851772871526e-01  1.5145494448474314e-01  1.4562430922573746e-01  1.3988759301802697e-01  1.3424327090971544e-01  1.2868982873292220e-01  1.2322578694874491e-01  1.1784971117361896e-01  1.1256012941593720e-01  1.0735564622838963e-01  1.0223487260029072e-01  9.7196401999076060e-02  9.2238884366231677e-02  8.7361005169351524e-02  8.2561399598471502e-02  7.7838768919437681e-02  7.3191899204500130e-02  6.8619390434971672e-02  6.4120050082277988e-02  5.9692634939965274e-02  5.5335841679275542e-02  5.1048506171225860e-02  4.6829498612786076e-02  4.2677463692326341e-02  3.8591321531349740e-02  3.4569779606684184e-02  3.0611739483474187e-02  2.6716156123705929e-02  2.2881754500894736e-02  1.9107350851429051e-02  1.5391896463503632e-02  1.1734257296719997e-02  8.1332348438380199e-03  4.5878358039153130e-03  1.0968181096247722e-03  -2.3408424584197168e-03  -5.7263288535216736e-03  -9.0607187262614700e-03  -1.2344691639783403e-02  -1.5580090614583007e-02  -1.8767527004376460e-02  -2.1908126154393626e-02  -2.5003180578016381e-02  -2.8053717828464806e-02  -3.1060178446738435e-02  -3.4024653504277892e-02  -3.6947624417037479e-02  -3.9830229260609779e-02  -4.2673620093508502e-02  -4.5478799688611675e-02  -4.8246833062524350e-02  -5.0978924577939039e-02  -5.3676020761248090e-02  -5.6339104494537016e-02  -5.8969145742247965e-02  -6.1567760426928041e-02  -6.4135329740427516e-02  -6.6673154428573411e-02  -6.9181897506954082e-02  -7.1663648993560716e-02  -7.4118827762232720e-02  -7.6547678219160933e-02  -7.8951995266402009e-02  -8.1333401750135703e-02  -8.3691572587958341e-02  -8.6028651342515014e-02  -8.8345372574765962e-02  -9.0642029941300981e-02  -9.2920267007035498e-02  -9.5181010286505788e-02  -9.7425221209101354e-02  -9.9654706290638578e-02  -1.0186957138605295e-01  -1.0407028710702808e-01  -1.0625756854094387e-01  -1.0843499962595085e-01  -1.1060164693951298e-01  -1.1275823679921745e-01  -1.1490674025281378e-01  -1.1704759123539051e-01  -1.1918180552155722e-01  -1.2131057469113359e-01  -1.2343589397132851e-01  -1.2555828110100400e-01  -1.2767803117351573e-01  -1.2979767733325195e-01  -1.3191822155949681e-01  -1.3404092137496140e-01  -1.3616732010903740e-01  -1.3829880983183224e-01  -1.4043725247284522e-01  -1.4258461430823446e-01  -1.4474312353886284e-01  -1.4691528800950401e-01  -1.4910281566018657e-01  -1.5130918040470062e-01  -1.5352733574355451e-01  -1.5591535133969139e-01  -1.5750061700188217e-01  -1.6151905393182028e-01  -1.6047656146518652e-01  -1.6519277724569176e-01  -1.6188438576071870e-01  -2.0246942515672228e-01  -1.8120748565593953e-01  -1.7464843515131762e-01  -1.6986637164399146e-01  -1.6663384127150466e-01  -1.6420621532434035e-01  -1.6238675780430031e-01  -1.6105277708035276e-01  -1.6025109669540058e-01  -1.6005387154451514e-01  -1.6045976649345720e-01  -1.6125341702342763e-01  -1.6162790425713600e-01  -1.6142087552309622e-01  -1.6074751395244985e-01  -1.5969825371616617e-01  -1.5831657745011507e-01  -1.5658715996371250e-01  -1.5449696575681468e-01  -1.5207499359655111e-01  -1.4933854667399421e-01  -1.4629150531949628e-01  -1.4294759398666479e-01  -1.3931792756740966e-01  -1.3541459800919334e-01  -1.3125814844398837e-01  -1.2686165766650476e-01  -1.2223770414908651e-01  -1.1740487176109307e-01  -1.1238233295721896e-01  -1.0718103930299748e-01  -1.0183125377692395e-01  -9.6351750820204377e-02  -9.0758741601992793e-02  -8.5083565925826665e-02  -7.9344905109334188e-02  -7.3573000123914212e-02  -6.7790412887678841e-02  -6.2020228582867869e-02  -5.6294564720953136e-02  -5.0634618320806388e-02  -4.5066683109242771e-02  -3.4193543000422079e-02  -2.8898395268561378e-02  -2.3735598855385620e-02  -1.8739437029756095e-02  -1.3936653109076115e-02  -9.3295391185798607e-03  -4.9443032153531508e-03  -7.8609491932505032e-04  3.0962516069311641e-03  6.7276600852238765e-03  1.0108404558251060e-02  1.3217727424269065e-02  1.6058423482929109e-02  1.8638215813403254e-02  2.0961690586365683e-02  2.3034496147525105e-02  2.4872694916942311e-02  2.6477427772087916e-02  2.7863419903461008e-02  2.9061807742575146e-02  3.0061529729801254e-02  3.0893083770318411e-02  3.1570345177083937e-02  3.2101516826690692e-02  3.2508229989528174e-02  3.2794998568134524e-02  3.2992690419398091e-02  3.3092159830874303e-02  3.3114131728770618e-02  3.3063446202605956e-02  3.2947772124604653e-02  3.2776308191756476e-02  3.2558029354730240e-02  3.2296816741819834e-02  3.1993291600190467e-02  3.1654293861557735e-02  3.1280332560182408e-02  3.0873857285753221e-02  3.0435725440593121e-02  2.9966134054231555e-02  2.9465241581073609e-02  2.8932762774155702e-02  2.8367295334592521e-02  2.7768938268661697e-02  2.7135068704546315e-02  2.6464247946294241e-02  2.5757415472951611e-02  2.5009719172058124e-02  2.4219122805100145e-02  2.3389917538165193e-02  2.2512544111482489e-02  2.1594030271547989e-02  2.0623899525664749e-02  1.9610951498550314e-02  1.8547443679873613e-02  1.7429564215605868e-02  1.6267846027696355e-02  1.5048120329950046e-02  1.3781749865459545e-02  1.2462679923060434e-02  1.1089925189191828e-02  9.6634937405725169e-03  8.1855877547795872e-03  6.6593545818246650e-03  5.0754504655682806e-03  3.4515824267249856e-03  1.7714586537320458e-03  0.0000000000000000e+00  0.0000000000000000e+00  0.0000000000000000e+00  0.0000000000000000e+00  0.0000000000000000e+00  0.0000000000000000e+00  0.0000000000000000e+00  0.0000000000000000e+00  0.0000000000000000e+00  1.9263989235903279e-03  3.7250254215335918e-03  5.4960740656635971e-03  7.2142393253440537e-03  8.8832858329460553e-03  1.0501980146732969e-02  1.2069424555062106e-02  1.3583919286520026e-02  1.5042630342092699e-02  1.6443376955060155e-02  1.7782174559868601e-02  1.9056567310265827e-02  2.0261506490943628e-02  2.1394013218035312e-02  2.2449251586646464e-02  2.3420688626684786e-02  2.4307899980640219e-02  2.5099803874927013e-02  2.5791736160257154e-02  2.6377541616202548e-02  2.6850375773829174e-02  2.7203545788106527e-02  2.7431416691085595e-02  2.7523284295845832e-02  2.7477230363176973e-02  2.7281825084958525e-02  2.6934677672594227e-02  2.6424450657018775e-02  2.5746022765318798e-02  2.4896684753544840e-02  2.3865784754452727e-02  2.2647822979620393e-02  2.1257583762623898e-02  1.9680742778816734e-02  1.7891503498675486e-02  1.5930182854224782e-02  1.3773007834156005e-02  1.1421422918551496e-02  8.8766143832853979e-03  6.1463786470285463e-03  3.2218428096418192e-03  1.1666865066255929e-04  -3.1772427929207497e-03  -6.6493784812554748e-03  -1.0310673956855232e-02  -1.4145980302977725e-02  -1.8156033955719412e-02  -2.2332493058825627e-02  -2.6678045502654374e-02  -3.1179227599004180e-02  -3.5833489175122878e-02  -4.0629492972431860e-02  -4.5554422160578915e-02  -5.0599689593210630e-02  -5.5749724474441584e-02  -6.0981775270020473e-02  -6.6238888699236220e-02  -7.1564093944738394e-02  -7.6875728221224307e-02  -8.2115686740096755e-02  -8.7286851457514150e-02  -9.2319303803798644e-02  -9.7193937952140194e-02  -1.0180618422851855e-01  -1.0615014333190133e-01  -1.1011740734835376e-01  -1.1369619827197605e-01  -1.1677730122938930e-01  -1.1936462528790963e-01  -1.2132661360739769e-01  -1.2267776656071400e-01  -1.2334543319664516e-01  -1.2319926512524076e-01  -1.2240820867759483e-01  -1.2083326950121184e-01  -1.1847902633184254e-01  -1.1546005911669219e-01  -1.1179713393542096e-01  -1.0761605170570461e-01  -1.0298615511878272e-01  -9.7906356447681864e-02  -9.2515945810505748e-02  -8.6855041286512988e-02  -8.1019147606979494e-02  -7.5012839023248137e-02  -6.8865105233365809e-02  -6.2630122728852516e-02  -5.6321481884566149e-02  -4.9950695813579714e-02  -4.3542228272419881e-02  -3.7101394929993807e-02  -3.0647186518976622e-02  -2.4182649983696458e-02  -1.7710471722648773e-02  -1.1242501945067407e-02  -4.7800332966746618e-03  1.6756652079551852e-03  8.1209900243731301e-03  1.4552732628031140e-02  2.0969687513556972e-02  2.7371314490925027e-02  3.3756026255695390e-02  4.0123624489501963e-02  4.6472442743352459e-02  5.2802844400527661e-02  5.9114077718974985e-02  6.5405859776770672e-02  7.1678089327754629e-02  7.7930445855380295e-02  8.4162875098168152e-02  9.0375338893078624e-02  9.6567735717324146e-02  1.0274003607738351e-01  1.0889223813437846e-01  1.1502435146582186e-01  1.2113635190730217e-01  1.2722831054413031e-01  1.3330024648880676e-01  1.3935218747770731e-01  1.4538418765588998e-01  1.5139628079683565e-01  1.5738848894129678e-01  1.5738817923552695e-01  1.5738742287612634e-01  1.5738623558528370e-01  1.5738479342070652e-01  1.5738334976804513e-01  1.5738215999569602e-01  1.5738139859628814e-01  1.5738109000293113e-01  -1.5292188351308617e-01  -1.8561904615518551e-01  -1.5968288152011414e-01  -1.4586754851440992e-01  -1.3521033821641301e-01  -1.2457732694919985e-01  -1.1401307281613719e-01  -1.0314591024551183e-01  -9.1852720181213349e-02  -8.2758700961638482e-02  -7.2736161788333240e-02  -6.2869715452646288e-02  -5.2350560015194447e-02  -4.1260809640032731e-02  -2.9560067252327790e-02  -1.4099102924871348e-01  -1.2442581730950046e-01  -1.0464850670869084e-01  -8.2155606884353763e-02  -5.9431572257593712e-02  -3.6935151869622262e-02  -1.7249705069479440e-01  -1.2141156018952678e-01  -1.6730651729237937e-02  2.1886561240117426e-04  1.4225776749176801e-02  -1.6610551873841670e-01  2.3883034675260841e-02  -1.7218442938267305e-02  2.9185829506022300e-02  -3.8815496700829863e-03  3.2085750256842863e-02  -1.1134257695035987e-01  -9.4124496526472687e-02  3.2982137923160855e-02  -7.3787635604635790e-02  9.9339276455607875e-03  -4.7678325441774888e-02  3.2583610367801108e-02  2.4797446376962407e-02  -1.5852178409879963e-01  3.1399207088620068e-02  -2.4278621194154561e-02  -1.2234155098374765e-01  4.0202152748951885e-02  2.9667596727446535e-02  -1.4776586154292078e-03  5.7701154466743683e-02  7.3727761572064641e-03  2.7388676883640755e-02  1.4946227565676309e-02  7.4992920740779734e-02  -1.1666765097255068e-01  2.4629837018183619e-02  2.0454089323245925e-02  -1.0518608962308970e-01  2.4383901219465733e-02  2.1090366620580562e-02  -8.9678084777473077e-02  9.5193522892664098e-02  1.0921078827756317e-01  -1.2123308163517584e-02  1.7958751688635678e-02  1.4241775176650132e-02  2.6605678799455544e-02  -7.2142847887649658e-02  2.7370311313376021e-02  -1.5239758058141675e-01  -4.7186972933777181e-02  2.6513457579334113e-02  1.2666268763862892e-01  -2.7452934624331300e-02  1.0348899042973576e-02  2.3797071505633795e-02  -7.8904440921029224e-03  1.7928363609435734e-02  2.0759611128568816e-02  4.9638299550330223e-02  1.7054378111352873e-02  6.8598273455144521e-02  8.7375108127446713e-02  1.2782897196662771e-02  1.1897467879898535e-01  1.6138621339896163e-03  1.5180485766991808e-01  -1.6124953238286213e-01  8.1455306040329432e-03  5.7455261660821861e-03  1.3677721164255119e-01  -1.7264610191999402e-01  -1.6059033795456115e-01  -1.1746141058899795e-01  -5.9382622083277208e-02  4.4047450099612383e-03  3.0231597823298966e-02  1.3711696723504252e-01  -3.8351234085333544e-02  -6.2895252304446966e-02  -8.4074391386477765e-02  -1.0331683420724048e-01  8.5255678941350665e-02  2.7278744851367432e-02  6.6081888817952961e-02  9.9616450012998251e-02  2.5358211333636436e-02  2.2945735190535194e-02  4.8378950164897523e-02  2.6004114837222755e-02  2.8609411541944494e-02  3.2839955887809955e-02  3.0598270770987257e-02  3.2072038453235918e-02  3.2913570739675491e-02  3.2758289490634994e-02  -2.6687397176934198e-02  1.7247794355104207e-02  3.0939360639441464e-02  2.6867877397206724e-02  2.8589719229585560e-03  1.9668817886964944e-02  8.0385230788475488e-03  -7.3812760215514863e-03  1.3451216786052253e-03  -1.1067122422070844e-02  -2.3008605466318235e-02  1.5214457590776240e-01  -3.5176926793423186e-02  -4.6874974902647144e-02  -5.7670575109379875e-02  -6.8041995877129641e-02  -7.7826635568008534e-02  -8.7114353765463615e-02  -1.4743017168942418e-01  -9.8586334398902575e-02  -1.0957407179225813e-01  -1.2032237261918907e-01  -1.3327455279530051e-01  -1.3102275667190061e-01  -9.3895151079014957e-02  -1.1443467265922730e-01  -7.1765468791687742e-02  -4.8168009443901268e-02  -1.4163158257961969e-01  -1.6228552190686416e-01  1.6929859973055469e-03  1.5164812803111807e-01  4.5393283824410663e-03  -1.6102363764145855e-01  1.5239645154482342e-01  1.3707990120544033e-03  1.4829250274846290e-01  -1.6099025766982089e-01  -1.6065092504781228e-01  -1.6018893742396989e-01  -1.6069191549056425e-01  -1.6021240539771367e-01  -1.6104377957685445e-01  -1.6038278087923866e-01  -1.6149852801181389e-01  -1.6066682036749641e-01  -1.6181961895095937e-01  -1.6086910428423268e-01  -1.6174438222818657e-01  -1.6059818234148260e-01  -1.6111024673583066e-01  -1.5982590508440847e-01  -1.6002392808156740e-01  -1.5856271109347966e-01  -1.5854678127965127e-01  -1.5691432119038864e-01  -1.5651348616372893e-01  -1.5457165823413452e-01  -1.5820743892007300e-01  -1.5507636144121759e-01  -1.5234344127295774e-01  -1.5550649650681031e-01  -1.5748392886732343e-01  -1.5262234486710027e-01  -1.4974327656342296e-01  -1.4994645554693131e-01  -1.4669991958161238e-01  -1.4678735530187903e-01  -1.4321888635950550e-01  -1.4322394397731908e-01  -1.3958083339687052e-01  -1.3925299221231385e-01  -1.3487893176394358e-01  -1.3465733498270557e-01  -1.3046046629375688e-01  -1.2981703053311744e-01  -1.2546000812660035e-01  -1.2457679655207776e-01  -1.2013365152956483e-01  -1.1902371045326575e-01  -1.1454351149952065e-01  -1.1316679963151541e-01  -1.0872026263221796e-01  -1.0704079424814916e-01  -1.0268058705731893e-01  -1.0071161270600694e-01  -9.6504461901669641e-02  -9.4195473928170431e-02  -9.0231153448251125e-02  -8.7460166262072078e-02  -1.5371328765594044e-01  -1.5553158168932926e-01  -8.3879655030773936e-02  -8.0682705947218200e-02  -7.7528960923403625e-02  -7.4335831475362310e-02  -7.1278643348302986e-02  -6.7732246750860592e-02  -6.5132155021858817e-02  -6.1258167252927924e-02  -1.4865029367114527e-01  -5.9202546779645489e-02  -5.4905335880050213e-02  -5.3205330375756414e-02  -4.8693369197358199e-02  -4.7604063291921683e-02  -4.2766553520851597e-02  -1.5096243438527424e-01  -1.5295225127576129e-01  -1.6224526129709765e-01  -4.2161637083158600e-02  -3.7042820179297269e-02  -3.6999902234140743e-02  -3.1608306972122004e-02  -3.2099731043733648e-02  -2.6493138483685143e-02  -1.5882794761434599e-01  -2.7478514763166741e-02  -2.1665144207148278e-02  -1.3889450226578470e-01  -2.3121379958000423e-02  -1.7170029786455515e-02  -1.9058378235531605e-02  -1.2999089510045072e-02  -1.5205707540450013e-02  -9.1421790783048056e-03  -1.5919000805334310e-01  -1.2537475642537074e-01  -1.1688513055646990e-02  -5.5990259331621583e-03  -1.4728566808599189e-01  -1.4856613879472871e-01  -1.4565261790532066e-01  -1.0942031089762340e-01  -8.3618956494010306e-03  -2.2083805369874209e-03  -5.3780160458986349e-03  8.2923451150875114e-04  -2.5431798738870504e-03  3.4536595870606110e-03  -3.7765883139428441e-02  6.6713940526630508e-04  -2.0935162920541199e-02  -5.7082845387822240e-02  8.1965434639673108e-05  5.8573745964027608e-03  9.2329525565997758e-03  1.1475546828014830e-02  8.1057327548609663e-03  1.3495925407098978e-02  1.0226523179272549e-02  1.5380298385005483e-02  1.2138919335986764e-02  1.7016760296612293e-02  1.3889652116705238e-02  1.8525641905144247e-02  1.5538252074510350e-02  1.9849332420493786e-02  1.6966000599176481e-02  2.1059227421914406e-02  1.8395158251226756e-02  2.2263994589301575e-02  1.9670268690178187e-02  2.3250517265103833e-02  2.0872590233278077e-02  2.4106311991210980e-02  2.1832217021777733e-02  2.4885947128540128e-02  -7.7210144835130001e-02  -9.2323786593849183e-02  2.2815374314400463e-02  2.5542283464170708e-02  2.3747431011267976e-02  2.6167761085226653e-02  -1.4603211631746793e-01  -1.1099452289012320e-01  2.4576442578505376e-02  2.6682030601813886e-02  -1.2826075002333770e-01  -7.4939883416623818e-02  -1.4269834189303898e-01  -1.4356536203903866e-01  -1.5021614518467621e-01  -1.4408657520624107e-01  -1.4968028646359080e-01  -1.4389300036343719e-01  -1.4982727629416207e-01  -1.4315947386991046e-01  -1.4734184775894635e-01  -1.4140255797348836e-01  -1.4569413380444141e-01  -1.3922937487530923e-01  -1.4198420582298768e-01  -1.3637312734687840e-01  -1.3842105664900492e-01  -1.3330338679749448e-01  -1.3470168659404422e-01  -1.2994020442660931e-01  -1.3089918699504677e-01  -1.2647311521929921e-01  -1.2704167189539869e-01  -1.2289400394121272e-01  -1.2318928069246642e-01  -1.1927972286984424e-01  -1.1934088808992777e-01  -1.1568287316700634e-01  -1.1518010134945032e-01  -1.1179632256639295e-01  -1.1194044945522763e-01  -1.0833068559347704e-01  -1.0810469513352772e-01  -1.0472013791438604e-01  -1.0450783178310454e-01  -1.0115257853279111e-01  -1.0067440808960064e-01  -9.7521284185893245e-02  -1.3104824576902069e-01  -1.0800355821408419e-01  -1.2189081668681638e-01  -9.6974305987835921e-02  -9.3811326521696395e-02  -9.4118087134058656e-02  -9.0583979070553503e-02  -9.0060764379623556e-02  -8.6968779819885225e-02  -8.6265127201396133e-02  -8.3296927780325852e-02  -8.2484828592637546e-02  -7.9566674854896283e-02  -8.6756062238258227e-02  -1.5485719242291718e-01  -1.4742404328369035e-01  -7.8765651664605224e-02  -7.5780206126272259e-02  -7.6538437816710353e-02  -7.2759041985595588e-02  -7.1970027096773387e-02  -6.8999104450280596e-02  -6.8103096243520969e-02  -6.5213283997202706e-02  -1.3945870054600143e-01  -6.9525694911862779e-02  -6.4259548686046164e-02  -6.1441778975950039e-02  -1.3111121274712867e-01  -6.0530267141542374e-02  -5.7614183393932622e-02  -5.8798188798055172e-02  -5.4650417380648790e-02  -5.3677694108011161e-02  -5.0602933887811528e-02  -5.1533783522312172e-02  -4.7489008240564859e-02  -4.6573112840448579e-02  -4.3452720410756054e-02  -4.2527764504034116e-02  -3.9323011918957929e-02  -4.0273053491330611e-02  -3.6147064411230057e-02  -3.5167146121797825e-02  -3.2016429815608226e-02  -3.1075045659390479e-02  -2.7903443378376299e-02  -1.3874010750411692e-01  -1.0780921736681966e-01  -1.2286286289836358e-01  -2.7055827373016046e-02  -2.3822555985717246e-02  -2.4682366134127803e-02  -2.0448334227439826e-02  -1.9593602708412493e-02  -1.6220244139302141e-02  -2.1306941260570714e-02  2.5233899132725376e-02  2.7110165857050190e-02  2.5831926518229985e-02  2.7471061236236639e-02  2.6364694499813063e-02  2.7760866702123296e-02  -8.9386485428643858e-02  -4.7234785303719204e-02  -1.6206901313668337e-01  -1.5333461397617071e-02  -1.2027434853687971e-02  -1.0000735279989566e-01  2.2917413292312463e-02  2.6957078242536184e-02  1.4320926559954573e-02  2.6806275046830485e-02  2.7970386281855528e-02  2.9012594249261520e-02  2.9002659892573716e-02  2.8105730544821107e-02  2.8940592298353440e-02  2.8173859676314313e-02  2.8819869789271924e-02  2.8159884827672229e-02  2.8632837833682648e-02  2.8073730798959872e-02  2.8387752278200722e-02  2.7904072819890068e-02  2.8071341619624286e-02  2.7658545812658815e-02  2.7695569301268916e-02  2.7340228821272437e-02  2.7258476276687312e-02  2.6952559329264873e-02  2.6762227243405629e-02  2.6484835006129168e-02  2.6191807385979402e-02  2.5935701723441049e-02  2.5569978029829719e-02  2.5309933546436677e-02  2.4861544295903874e-02  2.4623974904587249e-02  2.4112828206382213e-02  2.3843648223486679e-02  2.3278580775192230e-02  2.3009004604381940e-02  2.2396915437588906e-02  2.8681580492313667e-02  -3.7164394766071134e-02  -7.1109303728369835e-02  -1.1018227248056515e-02  -7.7251910565980606e-03  -8.7251781276862506e-03  -4.2717410797922075e-03  -5.3160385961117228e-03  -7.5935574231205641e-04  1.6500592654367641e-04  3.6969736921125115e-03  4.7413126584200625e-03  8.2455872080121877e-03  7.2986406777940426e-03  1.1835286683190007e-02  1.2640325584124031e-02  1.6336794839440609e-02  1.7128038091349509e-02