<?xml version="1.0"?>
<VTKFile type="UnstructuredGrid"  version="0.1"  >
<UnstructuredGrid>
<Piece  NumberOfPoints="2886" NumberOfCells="5412">
<Points>
<DataArray  type="Float64"  NumberOfComponents="3"  format="ascii">0 0.1 0  0.98 0.1 0  1 0.1 0  1 0 0  1.5 0 0  3 0 0  3 0.3 0  0 0.3 0  0.01975375321854102 0.1 0  0.03918897458218897 0.1 0  0.05831079002627837 0.1 0  0.07712425666319796 0.1 0  0.0956343475259058 0.1 0  0.1138459546796227 0.1 0  0.1317638870668193 0.1 0  0.1493928840275937 0.1 0  0.1667376092280033 0.1 0  0.1838026357802664 0.1 0  0.2005924801287244 0.1 0  0.2171115811543574 0.1 0  0.2333643037107681 0.1 0  0.2493549444060462 0.1 0  0.2650877293306821 0.1 0  0.2805668058011438 0.1 0  0.2957962848620976 0.1 0  0.3107801766802674 0.1 0  0.3255224447361181 0.1 0  0.3400269848175519 0.1 0  0.3542976327080778 0.1 0  0.3683381609158136 0.1 0  0.3821522744564845 0.1 0  0.3957436316838916 0.1 0  0.4091158196437086 0.1 0  0.4222723742184605 0.1 0  0.4352167733293057 0.1 0  0.4479524348643424 0.1 0  0.4604827295467524 0.1 0  0.4728109659990664 0.1 0  0.4849404035409129 0.1 0  0.4968742471455402 0.1 0  0.508615651843175 0.1 0  0.520167721130924 0.1 0  0.5315335063628542 0.1 0  0.5427160117228604 0.1 0  0.5537181940261912 0.1 0  0.564542961924507 0.1 0  0.575193173270606 0.1 0  0.5856716438765114 0.1 0  0.5959811458006617 0.1 0  0.6061243988680743 0.1 0  0.6161040893285659 0.1 0  0.6259228503970299 0.1 0  0.6355832809287655 0.1 0  0.6450879281079505 0.1 0  0.6544393102991295 0.1 0  0.663639896558931 0.1 0  0.6726921201956305 0.1 0  0.6815983691630338 0.1 0  0.6903610031396646 0.1 0  0.6989823343332418 0.1 0  0.7074646404270378 0.1 0  0.7158101645005117 0.1 0  0.7240211149852543 0.1 0  0.7320996585612525 0.1 0  0.7400479319727645 0.1 0  0.7478680336617921 0.1 0  0.755562036504958 0.1 0  0.7631319665092091 0.1 0  0.7705798279317605 0.1 0  0.777907588066146 0.1 0  0.7851171851013118 0.1 0  0.7922105226004981 0.1 0  0.7991894774550319 0.1 0  0.8060558928136696 0.1 0  0.812811583201334 0.1 0  0.8194583352091183 0.1 0  0.8259979035038147 0.1 0  0.8324320194413813 0.1 0  0.8387623808293405 0.1 0  0.8449906627004957 0.1 0  0.8511185094880469 0.1 0  0.8571475426008311 0.1 0  0.8630793533568246 0.1 0  0.8689155114558531 0.1 0  0.8746575581239063 0.1 0  0.8803070109173519 0.1 0  0.885865363938836 0.1 0  0.8913340851680313 0.1 0  0.8967146206523592 0.1 0  0.9020083930695622 0.1 0  0.9072167995950768 0.1 0  0.9123412183131177 0.1 0  0.9173830029719022 0.1 0  0.9223434865647732 0.1 0  0.9272239785872722 0.1 0  0.9320257720706087 0.1 0  0.9367501330378739 0.1 0  0.9413983102716995 0.1 0  0.9459715351562933 0.1 0  0.9504710127113115 0.1 0  0.9548979346500661 0.1 0  0.9592534708344373 0.1 0  0.9635387708980176 0.1 0  0.9677549682252325 0.1 0  0.971903177251235 0.1 0  0.9759844952956497 0.1 0  0.9840000000000086 0.1 0  0.987999999999974 0.1 0  0.9919999999999393 0.1 0  0.9959999999999913 0.1 0  1 0.09591793123533533 0  1 0.09133596463859224 0  1 0.08619288104391448 0  1 0.08041996484521211 0  1 0.07394008421771697 0  1 0.06666666567302955 0  1 0.05850252932209174 0  1 0.04933859630113544 0  1 0.03905242821848202 0  1 0.02750659386753798 0  1 0.01454683679239736 0  1.015625 0 0  1.03125 0 0  1.046875 0 0  1.0625 0 0  1.078125 0 0  1.09375 0 0  1.109375 0 0  1.125 0 0  1.140625 0 0  1.15625 0 0  1.171875 0 0  1.1875 0 0  1.203125 0 0  1.21875 0 0  1.234375 0 0  1.25 0 0  1.265625 0 0  1.28125 0 0  1.296875 0 0  1.3125 0 0  1.328125 0 0  1.34375 0 0  1.359375 0 0  1.375 0 0  1.390625 0 0  1.40625 0 0  1.421875 0 0  1.4375 0 0  1.453125 0 0  1.46875 0 0  1.484375 0 0  1.515920751924515 0 0  1.531989369316721 0 0  1.54820720925872 0 0  1.564575665560501 0 0  1.581096138674279 0 0  1.597770029901263 0 0  1.614598783332311 0 0  1.631583831055205 0 0  1.64872661129721 0 0  1.666028606716533 0 0  1.683491276608443 0 0  1.701116134125304 0 0  1.718904673324128 0 0  1.736858414799339 0 0  1.754978895814663 0 0  1.773267661782904 0 0  1.791726281103402 0 0  1.810356325314689 0 0  1.8291593848892 0 0  1.848137076690385 0 0  1.867291007717254 0 0  1.886622833871288 0 0  1.90613418642363 0 0  1.925826753299799 0 0  1.945702199101513 0 0  1.96576223584749 0 0  1.986008569283268 0 0  2.006442931928877 0 0  2.02706707547783 0 0  2.047882750887917 0 0  2.06889175187935 0 0  2.090095860038271 0 0  2.111496891648636 0 0  2.133096679109554 0 0  2.154897066851056 0 0  2.176899916687499 0 0  2.199107102752146 0 0  2.22152053937028 0 0  2.244142122958061 0 0  2.266973806444078 0 0  2.290017523268154 0 0  2.313275249499252 0 0  2.336748971745516 0 0  2.360440702338606 0 0  2.384352453384031 0 0  2.408486280477412 0 0  2.432844240041185 0 0  2.457428414757088 0 0  2.482240901796653 0 0  2.507283830121838 0 0  2.532559332080812 0 0  2.558069568787417 0 0  2.583816724966441 0 0  2.60980299606584 0 0  2.636030600971886 0 0  2.662501790984011 0 0  2.689218818279327 0 0  2.716183964547616 0 0  2.743399548861297 0 0  2.77086788244719 0 0  2.798591312896326 0 0  2.826572223178268 0 0  2.854812990138617 0 0  2.883316031690714 0 0  2.912083780657189 0 0  2.941118704633482 0 0  2.970423276998917 0 0  3 0.02999999999994495 0  3 0.05999999999987042 0  3 0.089999999999783 0  3 0.119999999999701 0  3 0.149999999999619 0  3 0.179999999999692 0  3 0.2099999999997737 0  3 0.2399999999998511 0  3 0.2699999999999185 0  2.970138294777171 0.3 0  2.940375666438236 0.3 0  2.910711782853056 0.3 0  2.881146331305122 0.3 0  2.851678975030285 0.3 0  2.822309388626621 0.3 0  2.793037250095074 0.3 0  2.76386223529133 0.3 0  2.734784017903872 0.3 0  2.705802289276642 0.3 0  2.676916713794697 0.3 0  2.648126987654635 0.3 0  2.619432780406184 0.3 0  2.590833779385199 0.3 0  2.562329669847737 0.3 0  2.533920134950189 0.3 0  2.505604855727852 0.3 0  2.477383539822502 0.3 0  2.449255847639465 0.3 0  2.421221492569094 0.3 0  2.393280152486815 0.3 0  2.36543151914496 0.3 0  2.337675285481809 0.3 0  2.310011142385583 0.3 0  2.282438797441587 0.3 0  2.254957931061538 0.3 0  2.227568248063605 0.3 0  2.200269436651085 0.3 0  2.173061204949961 0.3 0  2.145943251515011 0.3 0  2.118915272469994 0.3 0  2.091976978084957 0.3 0  2.065128060700849 0.3 0  2.038368218849433 0.3 0  2.01169717777258 0.3 0  1.985114624111908 0.3 0  1.958620267850966 0.3 0  1.93221382054972 0.3 0  1.905894991850698 0.3 0  1.879663489459713 0.3 0  1.853519019126419 0.3 0  1.827461291053897 0.3 0  1.801490031354372 0.3 0  1.775604937580312 0.3 0  1.74980572560258 0.3 0  1.724092118631866 0.3 0  1.698463829173586 0.3 0  1.672920575782554 0.3 0  1.647462076974085 0.3 0  1.622088043536933 0.3 0  1.5967981978949 0.3 0  1.571592267767068 0.3 0  1.546469970305736 0.3 0  1.521431023814044 0.3 0  1.496475156230927 0.3 0  1.471602093687753 0.3 0  1.446811560490646 0.3 0  1.422103279101731 0.3 0  1.397476971708191 0.3 0  1.37293238939876 0.3 0  1.348469231419202 0.3 0  1.324087248732772 0.3 0  1.299786165921677 0.3 0  1.275565710847046 0.3 0  1.251425617644257 0.3 0  1.227365618676339 0.3 0  1.203385446174014 0.3 0  1.179484853067473 0.3 0  1.155663548773374 0.3 0  1.131921292279077 0.3 0  1.108257802159295 0.3 0  1.084672829009693 0.3 0  1.061166115303374 0.3 0  1.037737392995421 0.3 0  1.01438640299116 0.3 0  0.991112899770314 0.3 0  0.9679166155523955 0.3 0  0.944797284182564 0.3 0  0.921754678526042 0.3 0  0.8987885143602501 0.3 0  0.8758985548820624 0.3 0  0.8530845484099929 0.3 0  0.8303462351786988 0.3 0  0.8076833651172373 0.3 0  0.7850956864865304 0.3 0  0.7625829601354557 0.3 0  0.7401449314598274 0.3 0  0.717781337993959 0.3 0  0.6954919649675473 0.3 0  0.6732765357561226 0.3 0  0.6511348120768439 0.3 0  0.6290665642016573 0.3 0  0.6070715355430467 0.3 0  0.5851494825775325 0.3 0  0.5633001690203812 0.3 0  0.5415233562273221 0.3 0  0.5198187909431873 0.3 0  0.4981862401387795 0.3 0  0.4766254686134248 0.3 0  0.4551362360485234 0.3 0  0.4337182975262159 0.3 0  0.4123714223228037 0.3 0  0.3910953802377493 0.3 0  0.3698899313205595 0.3 0  0.3487548463710963 0.3 0  0.3276898864081783 0.3 0  0.3066948129116018 0.3 0  0.2857694003037476 0.3 0  0.2649134227095047 0.3 0  0.2441266417321288 0.3 0  0.2234088223399122 0.3 0  0.2027597568977288 0.3 0  0.1821792020676698 0.3 0  0.1616669305402443 0.3 0  0.1412227158799362 0.3 0  0.12084633013886 0.3 0  0.1005375673448281 0.3 0  0.08029618164595353 0.3 0  0.06012194778526769 0.3 0  0.04001466495039718 0.3 0  0.01997408913631205 0.3 0  0 0.2800000000000553 0  0 0.2600000000001105 0  0 0.2400000000001658 0  0 0.2200000000002211 0  0 0.2000000000002764 0  0 0.1800000000002244 0  0 0.1600000000001691 0  0 0.140000000000115 0  0 0.1200000000000564 0  1.13346801534201 0.01255848438672509 0  1.003577645172735 0.09351054173913405 0  0.9777559943702486 0.1034978156913738 0  0.9524533750752109 0.1040889939962738 0  0.9296242411226409 0.1041520033606139 0  0.9046110503652111 0.104409422380137 0  0.8777709649694228 0.1053360318797398 0  0.8483859145648608 0.1061007868330701 0  0.8162363822948977 0.1052777104363292 0  0.7893110024210437 0.1060761643971561 0  0.7587949382612539 0.1067265405088633 0  0.7280603867732535 0.1069398153264939 0  0.6947001989413015 0.1075609887579097 0  0.6590363283767549 0.1076715322596598 0  0.6210028614493155 0.1072970410408442 0  1.1953125 0.01353164693413185 0  1.258193991486058 0.01269648635163345 0  1.3201967268638 0.01407907077719561 0  1.383538555392096 0.01434101079053473 0  1.445312500000001 0.01303671693628424 0  1.508925448095738 0.01398525724792267 0  0.9939176689634008 0.1034638089837981 0  1.120967497222226 0.2796788492172345 0  1.572835902117391 0.01424132418857359 0  1.637573277451887 0.01212536916586023 0  1.709730776795181 0.01466855431023635 0  1.005631976950563 0.07074019818158772 0  1.784944696816299 0.01454708406461822 0  0.5805605730631225 0.1101465090472147 0  1.855621181165637 0.01550931272897607 0  0.5366111276616774 0.1096761308243709 0  1.935200147913231 0.01760344159641829 0  1.214922267975168 0.2799787705802257 0  1.31178773425331 0.2792
[...]
<PointData  Scalars="pressure"> 
<DataArray  type="Float64"  Name="pressure"  format="ascii">1.5642034095686541e-01  -1.6446844604416358e-01  -2.0986135836298278e-01  -1.5739698464715998e-01  -3.8391792013871648e-02  0.0000000000000000e+00  0.0000000000000000e+00  1.5642815531574830e-01  1.5049421901612370e-01  1.4466357999524024e-01  1.3892685450773765e-01  1.3328251694604729e-01  1.2772905196774553e-01  1.2226497897112233e-01  1.1688886415074530e-01  1.1159923236195517e-01  1.0639468827792435e-01  1.0127384201084685e-01  9.6235283150273035e-02  9.1277660895264942e-02  8.6399660298889486e-02  8.1599911441897058e-02  7.6877113270827122e-02  7.2230054592500328e-02  6.7657323871032141e-02  6.3157729412120167e-02  5.8730024298332330e-02  5.4372896343489532e-02  5.0085179524362172e-02  4.5865746266746443e-02  4.1713222958902091e-02  3.7626531917066185e-02  3.3604366070272965e-02  2.9645621954817666e-02  2.5749258596487856e-02  2.1913980763393640e-02  1.8138594126855062e-02  1.4422046036133254e-02  1.0763191764643455e-02  7.1608168205744942e-03  3.6139234707841207e-03  1.2124982054259198e-04  -3.3182355074398181e-03  -6.7057361142947025e-03  -1.0042345258471457e-02  -1.3328721455905315e-02  -1.6566780876632020e-02  -1.9757122710791643e-02  -2.2900881379403337e-02  -2.5999392741068852e-02  -2.9053699109002958e-02  -3.2064205332614434e-02  -3.5033105851949346e-02  -3.7960857898200993e-02  -4.0848624864513544e-02  -4.3697587545074877e-02  -4.6508769459016587e-02  -4.9283258346976430e-02  -5.2022292560934269e-02  -5.4726838367183665e-02  -5.7397898708208946e-02  -6.0036463085023091e-02  -6.2644216167825145e-02  -6.5221520470937433e-02  -6.7769723841402868e-02  -7.0289493189263016e-02  -7.2783017252000426e-02  -7.5250713240215053e-02  -7.7692794680165780e-02  -8.0111145048444188e-02  -8.2507464551642221e-02  -8.4881369107916979e-02  -8.7235116368857391e-02  -8.9569461832327252e-02  -9.1884684716334764e-02  -9.4182515983144782e-02  -9.6463920330548375e-02  -9.8729898937381155e-02  -1.0098236772465501e-01  -1.0322141849922774e-01  -1.0544752713970885e-01  -1.0766145868095305e-01  -1.0986704313813078e-01  -1.1206326821408155e-01  -1.1425091318580223e-01  -1.1643209822450229e-01  -1.1860730198183822e-01  -1.2077763174380073e-01  -1.2294440791930485e-01  -1.2510981674165975e-01  -1.2727445754516520e-01  -1.2943872137138659e-01  -1.3160544177353228e-01  -1.3377581313036885e-01  -1.3595132951458769e-01  -1.3813385945534087e-01  -1.4032513005867159e-01  -1.4252744657832039e-01  -1.4474331721307115e-01  -1.4697564938773608e-01  -1.4922798947548774e-01  -1.5150250905642185e-01  -1.5380673584186513e-01  -1.5614257531000522e-01  -1.5854667672038689e-01  -1.6083527791948118e-01  -1.6570558820371406e-01  -1.6760357117250668e-01  -1.7169788456886506e-01  -1.6697397947940174e-01  -1.9864939771158990e-01  -1.7780305365051680e-01  -1.7129262954798133e-01  -1.6652378493084397e-01  -1.6328780164715512e-01  -1.6085173019691945e-01  -1.5902164998955864e-01  -1.5767515835081491e-01  -1.5686020731329567e-01  -1.5664965649082768e-01  -1.5704559994772757e-01  -1.5783671294653434e-01  -1.5819883286289313e-01  -1.5797221826881730e-01  -1.5727236148129864e-01  -1.5619051608613060e-01  -1.5477254861136963e-01  -1.5300587010636979e-01  -1.5087941176344222e-01  -1.4842482701530471e-01  -1.4566200272836363e-01  -1.4259702890409265e-01  -1.3924549885345650e-01  -1.3562023782539967e-01  -1.3173469267146892e-01  -1.2761005699648328e-01  -1.2326011103931765e-01  -1.1869797428310903e-01  -1.1394225252795352e-01  -1.0901186444147172e-01  -1.0391814929279342e-01  -9.8689873961938859e-02  -9.3345134246554273e-02  -8.7899935685143038e-02  -8.2383504824081868e-02  -7.6813827645036165e-02  -7.1218604955547313e-02  -6.5620005540958426e-02  -6.0038470069735547e-02  -5.4504057445840005e-02  -4.9036266178418539e-02  -4.3659227455236663e-02  -3.3160042686866238e-02  -2.8044659900616258e-02  -2.3054797281671913e-02  -1.8221687947468135e-02  -1.3569661447221772e-02  -9.1021485649319198e-03  -4.8417599496884929e-03  -7.9320595697471242e-04  2.9966631879718353e-03  6.5506163028772801e-03  9.8701967345796657e-03  1.2934650078071885e-02  1.5745907042274007e-02  1.8310845111834288e-02  2.0633014371098064e-02  2.2716780455899459e-02  2.4576699474686631e-02  2.6212929966120974e-02  2.7638000809244723e-02  2.8881740303703621e-02  2.9931703608634702e-02  3.0816552357562997e-02  3.1549014641985271e-02  3.2136058371845917e-02  3.2598051109461568e-02  3.2938162951835694e-02  3.3187471287048534e-02  3.3335102563222127e-02  3.3401622133369745e-02  3.3391426516178914e-02  3.3311715712076945e-02  3.3171573098509044e-02  3.2980087385059656e-02  3.2741191542555143e-02  3.2455246406381609e-02  3.2129563889360856e-02  3.1764653927975291e-02  3.1363374527574289e-02  3.0926769086407919e-02  3.0455311644533845e-02  2.9949502729567191e-02  2.9409376513777369e-02  2.8833737572973171e-02  2.8223198213210673e-02  2.7575197656416670e-02  2.6888548395644338e-02  2.6164874841553793e-02  2.5399230760727861e-02  2.4589338394591431e-02  2.3740913203979308e-02  2.2843149967569854e-02  2.1904720005617068e-02  2.0913645998605936e-02  1.9880510655744008e-02  1.8796724822336019e-02  1.7658235736554475e-02  1.6476891137645468e-02  1.5236932904758648e-02  1.3951253519371124e-02  1.2613076929633886e-02  1.1221547716624786e-02  9.7760709571701951e-03  8.2795201333376641e-03  6.7348428890120406e-03  5.1328651771974012e-03  3.4908649471136668e-03  1.7917705177188656e-03  0.0000000000000000e+00  0.0000000000000000e+00  0.0000000000000000e+00  0.0000000000000000e+00  0.0000000000000000e+00  0.0000000000000000e+00  0.0000000000000000e+00  0.0000000000000000e+00  0.0000000000000000e+00  1.9309492390926410e-03  3.7333154226022532e-03  5.5099169624047246e-03  7.2331667292766331e-03  8.9070614302438865e-03  1.0530368685673332e-02  1.2102241302628200e-02  1.3621005620983562e-02  1.5083737777767288e-02  1.6488332656105421e-02  1.7830815705347461e-02  1.9108857950891348e-02  2.0317485642988076e-02  2.1453832640329087e-02  2.2513234448858752e-02  2.3489412733351159e-02  2.4382210842396796e-02  2.5180664010445854e-02  2.5880395632168436e-02  2.6475579427272002e-02  2.6959638971636980e-02  2.7326201543805925e-02  2.7569936523480287e-02  2.7680261281880853e-02  2.7656120404179203e-02  2.7485547127307913e-02  2.7166969723157477e-02  2.6688796394643419e-02  2.6046070878402008e-02  2.5236184931987725e-02  2.4248145621712593e-02  2.3076463705474844e-02  2.1736477015754964e-02  2.0211684395926258e-02  1.8477745751714715e-02  1.6573455701143044e-02  1.4475603138069216e-02  1.2183968628527990e-02  9.6994180700103027e-03  7.0305055962709929e-03  4.1657259595352649e-03  1.1203160376432565e-03  -2.1151017347532004e-03  -5.5302920049814502e-03  -9.1365862563831442e-03  -1.2917657881257318e-02  -1.6875565667078495e-02  -2.1001210534625357e-02  -2.5297010965913740e-02  -2.9749518026104659e-02  -3.4355822070919022e-02  -3.9104444923843622e-02  -4.3982258423877721e-02  -4.8980881587571690e-02  -5.4085077809507810e-02  -5.9272325850974097e-02  -6.4485780182014729e-02  -6.9771490126201777e-02  -7.5047067487136326e-02  -8.0257166818323344e-02  -8.5406598608104164e-02  -9.0426751258839741e-02  -9.5302055977736555e-02  -9.9929274255672523e-02  -1.0430395221571233e-01  -1.0832082219212957e-01  -1.1196773042736406e-01  -1.1513804386466041e-01  -1.1783513848878788e-01  -1.1992911101891310e-01  -1.2143369439318813e-01  -1.2227390798286410e-01  -1.2231633213969184e-01  -1.2172641827198707e-01  -1.2035529760330874e-01  -1.1820094989931823e-01  -1.1537109093832415e-01  -1.1187945745265203e-01  -1.0785087904090009e-01  -1.0335345709069832e-01  -9.8382832010613958e-02  -9.3083556562123762e-02  -8.7496652019138282e-02  -8.1723058298174417e-02  -7.5767052258886122e-02  -6.9659161268542852e-02  -6.3457018867960721e-02  -5.7174923975794885e-02  -5.0825117862214587e-02  -4.4433674270961454e-02  -3.8006212971186004e-02  -3.1563045736758472e-02  -2.5107381322131656e-02  -1.8642086406998624e-02  -1.2179842124814613e-02  -5.7220061225222527e-03  7.3005650632672130e-04  7.1724987224443225e-03  1.3601875911548239e-02  2.0016912769119526e-02  2.6417020562937727e-02  3.2800503678060991e-02  3.9167141063085741e-02  4.5515156116141549e-02  5.1844927286830857e-02  5.8155651924982704e-02  6.4447020538986002e-02  7.0718922976237109e-02  7.6971011638361134e-02  8.3203225743376671e-02  8.9415519106195884e-02  9.5607779712250429e-02  1.0177997177842112e-01  1.0793208870665090e-01  1.1406413649259518e-01  1.2017608521917368e-01  1.2626800656082168e-01  1.3233991598466963e-01  1.3839183896148641e-01  1.4442382910561646e-01  1.5043591793111852e-01  1.5642812506514137e-01  1.5642780003723708e-01  1.5642700668400444e-01  1.5642576163419064e-01  1.5642424947843550e-01  1.5642273576351207e-01  1.5642148811211015e-01  1.5642068947036095e-01  1.5642036560413125e-01  -1.4929248487007662e-01  -1.8204260272778364e-01  -1.6240822555576004e-01  -1.4815583732009202e-01  -1.3715943628970353e-01  -1.2627915831740227e-01  -1.1552913431850606e-01  -1.0451588573555991e-01  -9.3107995523170797e-02  -8.3944146043635690e-02  -7.3862446680295971e-02  -6.3952209174496538e-02  -5.3398575496157605e-02  -4.2282605036547280e-02  -3.0562453479348137e-02  -1.3729780063191593e-01  -1.2086101270799142e-01  -1.0144656955078932e-01  -7.9544459654094873e-02  -5.7537319623385132e-02  -3.5806790759179065e-02  -1.7560331245942062e-01  -1.2008590160926833e-01  -1.6274017944478733e-02  1.9206162483509468e-04  1.3939452268705223e-02  -1.6274324611207888e-01  2.3585605639837290e-02  -1.8206956346978585e-02  2.9027431569482478e-02  -4.8600585296308648e-03  3.2143584688081532e-02  -1.0959682727712100e-01  -9.2252361867325230e-02  3.3250226787868577e-02  -7.1991046018322402e-02  8.9620656056745573e-03  -4.6091534953830664e-02  3.2984448345187371e-02  2.3830029001326851e-02  -1.5499961675818344e-01  3.1872073956715256e-02  -2.2923332318080476e-02  -1.2156416438515684e-01  3.9237533209319275e-02  3.0148014375729632e-02  -4.3991304095155389e-04  5.6738366632427588e-02  8.2353131881096574e-03  2.7830621391365818e-02  1.5622323030020877e-02  7.4031136081871299e-02  -1.1647218900125295e-01  2.5006869823213478e-02  2.0963338775379380e-02  -1.0547871751809636e-01  2.4747612714383166e-02  2.1388036703258780e-02  -9.0278533849048881e-02  9.4232354477038135e-02  1.0824984802571233e-01  -1.0920089379758427e-02  1.8195740380165353e-02  1.4417457206357407e-02  2.6858488566758681e-02  -7.2913700474219162e-02  2.7522293928662758e-02  -1.5495541386451869e-01  -4.8067785994465401e-02  2.6621488491924361e-02  1.2570189737525478e-01  -2.8372758690197963e-02  1.0469779787773666e-02  2.3871884361768406e-02  -8.8299957072296657e-03  1.6976567389763258e-02  2.0819679757056640e-02  4.8680725359146658e-02  1.7102675525354102e-02  6.7639276729952943e-02  8.6415377568084178e-02  1.2818840963579992e-02  1.1801443276137991e-01  1.6229368478793628e-03  1.5084434609024819e-01  -1.5786046328244518e-01  8.1678426403953997e-03  5.8102981372519253e-03  1.3581687187174973e-01  -1.6926464922576093e-01  -1.5713416528009114e-01  -1.1588614882913929e-01  -6.0221940292809709e-02  3.4580220281769827e-03  2.9276823770435494e-02  1.3615621983615081e-01  -3.6850746141920486e-02  -6.1179936032057215e-02  -8.2221979774493262e-02  -1.0147362322273720e-01  8.4294262053411437e-02  2.7476061327525465e-02  6.5119660417127703e-02  9.8656445084339142e-02  2.5446718059349858e-02  2.3283753348292430e-02  4.7415320649975640e-02  2.6414279774423614e-02  2.9075318062698478e-02  3.1874174210045493e-02  3.1081876502595498e-02  3.2517994182753154e-02  3.3249125759170634e-02  3.2929930342737335e-02  -2.5906668620721194e-02  1.6278390417987794e-02  3.0885333153886359e-02  2.6627492379138022e-02  1.8840654149162770e-03  1.9349255488358114e-02  7.8435856954267354e-03  -7.2056758527506608e-03  1.3581073051055501e-03  -1.2050467420741822e-02  -2.4002940485616953e-02  1.5118392933883129e-01  -3.6187827695574999e-02  -4.7908937682171644e-02  -5.8734684930183211e-02  -6.9145992473178611e-02  -7.8980940516354278e-02  -8.8331206164365947e-02  -1.4374989235857613e-01  -9.9905754279502768e-02  -1.1102505723928707e-01  -1.2194333070158207e-01  -1.2961571206658232e-01  -1.3286556191089288e-01  -9.0956578269034999e-02  -1.1103077662557358e-01  -6.9470922077746855e-02  -4.6654575290432633e-02  -1.4377014111089306e-01  -1.6744934348448157e-01  1.6977389634092565e-03  1.5068773115508280e-01  4.5508906918774721e-03  -1.5760225395853625e-01  1.5143573254245821e-01  1.3860570341963519e-03  1.4733214234853026e-01  -1.5755498919308158e-01  -1.5721257830353580e-01  -1.5673036290728370e-01  -1.5725130642663990e-01  -1.5675052093098413e-01  -1.5759959897370565e-01  -1.5691207369440055e-01  -1.5804757613346146e-01  -1.5718532299772045e-01  -1.5835945649149422e-01  -1.5737523022643973e-01  -1.5827315755152202e-01  -1.5708577718591332e-01  -1.5762497380188989e-01  -1.5629038262175027e-01  -1.5652556803823403e-01  -1.5500440304199153e-01  -1.5504731593974377e-01  -1.5335160007315532e-01  -1.5305877859112232e-01  -1.5104413630273594e-01  -1.5483408671669324e-01  -1.5143668164187438e-01  -1.4875146586183050e-01  -1.5224120545063585e-01  -1.5432059675779988e-01  -1.4892997239035999e-01  -1.4610248303848841e-01  -1.4620439776077387e-01  -1.4302943731328896e-01  -1.4301467515631458e-01  -1.3954545994410766e-01  -1.3944217242640963e-01  -1.3590828977935618e-01  -1.3548069598311127e-01  -1.3126274944462199e-01  -1.3092589704338392e-01  -1.2688381157160672e-01  -1.2614523526375915e-01  -1.2196037163901617e-01  -1.2098749083634371e-01  -1.1673338501743367e-01  -1.1553856018658248e-01  -1.1125985515700421e-01  -1.0980628809722547e-01  -1.0556743635338532e-01  -1.0382337966975785e-01  -9.9675468154868649e-02  -9.7653969059345119e-02  -9.3656324019004630e-02  -9.1317373199449201e-02  -8.7548385292433681e-02  -8.4759875693107695e-02  -1.5072734722743497e-01  -1.5269933656492096e-01  -8.1375560109967993e-02  -7.8185089518596373e-02  -7.5196949591389992e-02  -7.2025340115054765e-02  -6.9124548013942549e-02  -6.5619144816122493e-02  -6.3149046495059563e-02  -5.9339414481946989e-02  -1.4517394854824592e-01  -5.7381046389997914e-02  -5.3175204270171791e-02  -5.1546682194721805e-02  -4.7143949913807534e-02  -4.6084832558884570e-02  -4.1383755275782148e-02  -1.4833887860409434e-01  -1.5056088140263349e-01  -1.5880257747923140e-01  -4.0774046443075099e-02  -3.5813638769535909e-02  -3.5727566139683677e-02  -3.0515928281607183e-02  -3.0928505118533803e-02  -2.5519540649932119e-02  -1.5586237988102014e-01  -2.6391971286540080e-02  -2.0792509305641707e-02  -1.3541879658424233e-01  -2.2104872258125630e-02  -1.6380071322765141e-02  -1.8097942886227399e-02  -1.2274187172112955e-02  -1.4291847164207965e-02  -8.4668386155391691e-03  -1.5562914040298034e-01  -1.2204425664072696e-01  -1.0806719754634826e-02  -4.9580934151932611e-03  -1.4508871148870425e-01  -1.4663671415004356e-01  -1.4324875851495861e-01  -1.0639644990536326e-01  -7.5054916871443306e-03  -1.5946900396622827e-03  -4.5340091665118090e-03  1.4290839983139266e-03  -1.7107519863136728e-03  4.0518520542531323e-03  -3.6545938911418080e-02  1.0455970166111527e-03  -2.0175398810745385e-02  -5.5264810839420496e-02  9.0555710863276704e-04  6.4582661983744348e-03  9.5894087975363848e-03  1.1843438019321436e-02  8.7095725359464353e-03  1.3878907267363285e-02  1.0831445749825344e-02  1.5780048131645623e-02  1.2747233659336903e-02  1.7438716365174179e-02  1.4500649355368015e-02  1.8965465785448343e-02  1.6147800717639962e-02  2.0306913794191243e-02  1.7575067201455241e-02  2.1530797937262744e-02  1.8996185665753281e-02  2.2741425469372144e-02  2.0261842120265616e-02  2.3734983787339341e-02  2.1450295949650106e-02  2.4595160101586182e-02  2.2397243736878340e-02  2.5374558030107498e-02  -7.4765041966251583e-02  -8.9713192133135986e-02  2.3361209379959169e-02  2.6027867286461521e-02  2.4271101355655921e-02  2.6645015898482349e-02  -1.4222533058495920e-01  -1.0762254972011634e-01  2.5076475054889490e-02  2.7149727812633830e-02  -1.2456446971112491e-01  -7.2759783679391524e-02  -1.4093018133764193e-01  -1.4209568901678862e-01  -1.4866072167931715e-01  -1.4299316187021999e-01  -1.4865350761541579e-01  -1.4321882976352179e-01  -1.4937448951430110e-01  -1.4293427467702519e-01  -1.4742274695356888e-01  -1.4159120639889358e-01  -1.4624146348522518e-01  -1.3977140848331521e-01  -1.4289187166448786e-01  -1.3718714235192253e-01  -1.3956635771445444e-01  -1.3431299381663575e-01  -1.3598815344162585e-01  -1.3107614580937743e-01  -1.3226155732961245e-01  -1.2768341393668886e-01  -1.2843506005638625e-01  -1.2414374243647412e-01  -1.2458791095425463e-01  -1.2054691378335608e-01  -1.2072891713066418e-01  -1.1695339128371016e-01  -1.1654442636379428e-01  -1.1305181284126198e-01  -1.1309277137591511e-01  -1.0948967268586474e-01  -1.0935154198597415e-01  -1.0588062765558376e-01  -1.0574983968038225e-01  -1.0231210462256748e-01  -1.0189874070058849e-01  -9.8673486354883835e-02  -1.3170774225732912e-01  -1.0904498762021579e-01  -1.2295920125035145e-01  -9.8181608184774227e-02  -9.4955106109444076e-02  -9.5197094326731041e-02  -9.1663630127959472e-02  -9.1195547922777911e-02  -8.8049350686490821e-02  -8.7389963919405719e-02  -8.4374656510948443e-02  -8.3599156769772254e-02  -8.0637932836313556e-02  -8.7779613110506971e-02  -1.5396307799843040e-01  -1.4846714884804774e-01  -7.9869401061546108e-02  -7.6846109530615811e-02  -7.7567518053179838e-02  -7.3787003431557280e-02  -7.3030740499962957e-02  -7.0027130762852732e-02  -6.9157862281734234e-02  -6.6239439008758644e-02  -1.4094966193335642e-01  -7.0519728909181720e-02  -6.5308222316585313e-02  -6.2465972223702967e-02  -1.3266259283049320e-01  -6.1573012098923428e-02  -5.8635100771355912e-02  -5.9798222820121531e-02  -5.5649781752293154e-02  -5.4695546422563905e-02  -5.1602235368333027e-02  -5.2512133171049552e-02  -4.8470228189834146e-02  -4.7571978253611598e-02  -4.4435877909613765e-02  -4.3525682791339990e-02  -4.0307353969949229e-02  -4.1241653008560704e-02  -3.7118783547441865e-02  -3.6151992480781908e-02  -3.2990294264782970e-02  -3.2059666678585071e-02  -2.8878547721671262e-02  -1.3796232395110464e-01  -1.0913315638015843e-01  -1.2436210958027959e-01  -2.8039853783032389e-02  -2.4798375808542376e-02  -2.5648659754733096e-02  -2.1416485242794193e-02  -2.0569610771051454e-02  -1.7189784524940067e-02  -2.2265447598233491e-02  2.5709547591785637e-02  2.7564515740564548e-02  2.6281896607717296e-02  2.7910507444019121e-02  2.6787793863267774e-02  2.8182875857226456e-02  -9.0561305007548110e-02  -4.5714338927076423e-02  -1.5864123380926523e-01  -1.6309355855659277e-02  -1.2997730786271561e-02  -1.0127690603723875e-01  2.3189022306243767e-02  2.7366665378238730e-02  1.4458064885803293e-02  2.7202495486814016e-02  2.8374195451509262e-02  2.9438841911581966e-02  2.9418814929686836e-02  2.8490210453786111e-02  2.9344710396706292e-02  2.8538937657629052e-02  2.9210418551842941e-02  2.8505139508570237e-02  2.9008411052077271e-02  2.8399563893067824e-02  2.8747425314634197e-02  2.8210407576000074e-02  2.8413737594083405e-02  2.7945090626274056e-02  2.8020667777261695e-02  2.7607918457988306e-02  2.7566057996351936e-02  2.7202990262354627e-02  2.7052711941141849e-02  2.6719159365658194e-02  2.6465185664319713e-02  2.6153186486555961e-02  2.5826493992530404e-02  2.5511097538644886e-02  2.5101311531775937e-02  2.4810464904940016e-02  2.4336474979175859e-02  2.4018516738742782e-02  2.3486911693455095e-02  2.3164935777475040e-02  2.2589300232972485e-02  2.9120968002466389e-02  -3.8120362153457793e-02  -7.2195980420367428e-02  -1.1993715847495513e-02  -8.6958381929059976e-03  -9.6902504377624175e-03  -5.2378604910380743e-03  -6.2764658265582560e-03  -1.7214512706081172e-03  -8.0183261372502505e-04  2.7336744823648717e-03  3.7740907413075175e-03  7.2814304160861683e-03  6.3383496866936430e-03  1.0873805059475728e-02  1.1675641933713485e-02  1.5374445111219067e-02  1.6163112422320752e-0