<?xml version="1.0"?>
<VTKFile type="UnstructuredGrid"  version="0.1"  >
<UnstructuredGrid>
<Piece  NumberOfPoints="2886" NumberOfCells="5412">
<Points>
<DataArray  type="Float64"  NumberOfComponents="3"  format="ascii">0 0.1 0  0.98 0.1 0  1 0.1 0  1 0 0  1.5 0 0  3 0 0  3 0.3 0  0 0.3 0  0.01975375321854102 0.1 0  0.03918897458218897 0.1 0  0.05831079002627837 0.1 0  0.07712425666319796 0.1 0  0.0956343475259058 0.1 0  0.1138459546796227 0.1 0  0.1317638870668193 0.1 0  0.1493928840275937 0.1 0  0.1667376092280033 0.1 0  0.1838026357802664 0.1 0  0.2005924801287244 0.1 0  0.2171115811543574 0.1 0  0.2333643037107681 0.1 0  0.2493549444060462 0.1 0  0.2650877293306821 0.1 0  0.2805668058011438 0.1 0  0.2957962848620976 0.1 0  0.3107801766802674 0.1 0  0.3255224447361181 0.1 0  0.3400269848175519 0.1 0  0.3542976327080778 0.1 0  0.3683381609158136 0.1 0  0.3821522744564845 0.1 0  0.3957436316838916 0.1 0  0.4091158196437086 0.1 0  0.4222723742184605 0.1 0  0.4352167733293057 0.1 0  0.4479524348643424 0.1 0  0.4604827295467524 0.1 0  0.4728109659990664 0.1 0  0.4849404035409129 0.1 0  0.4968742471455402 0.1 0  0.508615651843175 0.1 0  0.520167721130924 0.1 0  0.5315335063628542 0.1 0  0.5427160117228604 0.1 0  0.5537181940261912 0.1 0  0.564542961924507 0.1 0  0.575193173270606 0.1 0  0.5856716438765114 0.1 0  0.5959811458006617 0.1 0  0.6061243988680743 0.1 0  0.6161040893285659 0.1 0  0.6259228503970299 0.1 0  0.6355832809287655 0.1 0  0.6450879281079505 0.1 0  0.6544393102991295 0.1 0  0.663639896558931 0.1 0  0.6726921201956305 0.1 0  0.6815983691630338 0.1 0  0.6903610031396646 0.1 0  0.6989823343332418 0.1 0  0.7074646404270378 0.1 0  0.7158101645005117 0.1 0  0.7240211149852543 0.1 0  0.7320996585612525 0.1 0  0.7400479319727645 0.1 0  0.7478680336617921 0.1 0  0.755562036504958 0.1 0  0.7631319665092091 0.1 0  0.7705798279317605 0.1 0  0.777907588066146 0.1 0  0.7851171851013118 0.1 0  0.7922105226004981 0.1 0  0.7991894774550319 0.1 0  0.8060558928136696 0.1 0  0.812811583201334 0.1 0  0.8194583352091183 0.1 0  0.8259979035038147 0.1 0  0.8324320194413813 0.1 0  0.8387623808293405 0.1 0  0.8449906627004957 0.1 0  0.8511185094880469 0.1 0  0.8571475426008311 0.1 0  0.8630793533568246 0.1 0  0.8689155114558531 0.1 0  0.8746575581239063 0.1 0  0.8803070109173519 0.1 0  0.885865363938836 0.1 0  0.8913340851680313 0.1 0  0.8967146206523592 0.1 0  0.9020083930695622 0.1 0  0.9072167995950768 0.1 0  0.9123412183131177 0.1 0  0.9173830029719022 0.1 0  0.9223434865647732 0.1 0  0.9272239785872722 0.1 0  0.9320257720706087 0.1 0  0.9367501330378739 0.1 0  0.9413983102716995 0.1 0  0.9459715351562933 0.1 0  0.9504710127113115 0.1 0  0.9548979346500661 0.1 0  0.9592534708344373 0.1 0  0.9635387708980176 0.1 0  0.9677549682252325 0.1 0  0.971903177251235 0.1 0  0.9759844952956497 0.1 0  0.9840000000000086 0.1 0  0.987999999999974 0.1 0  0.9919999999999393 0.1 0  0.9959999999999913 0.1 0  1 0.09591793123533533 0  1 0.09133596463859224 0  1 0.08619288104391448 0  1 0.08041996484521211 0  1 0.07394008421771697 0  1 0.06666666567302955 0  1 0.05850252932209174 0  1 0.04933859630113544 0  1 0.03905242821848202 0  1 0.02750659386753798 0  1 0.01454683679239736 0  1.015625 0 0  1.03125 0 0  1.046875 0 0  1.0625 0 0  1.078125 0 0  1.09375 0 0  1.109375 0 0  1.125 0 0  1.140625 0 0  1.15625 0 0  1.171875 0 0  1.1875 0 0  1.203125 0 0  1.21875 0 0  1.234375 0 0  1.25 0 0  1.265625 0 0  1.28125 0 0  1.296875 0 0  1.3125 0 0  1.328125 0 0  1.34375 0 0  1.359375 0 0  1.375 0 0  1.390625 0 0  1.40625 0 0  1.421875 0 0  1.4375 0 0  1.453125 0 0  1.46875 0 0  1.484375 0 0  1.515920751924515 0 0  1.531989369316721 0 0  1.54820720925872 0 0  1.564575665560501 0 0  1.581096138674279 0 0  1.597770029901263 0 0  1.614598783332311 0 0  1.631583831055205 0 0  1.64872661129721 0 0  1.666028606716533 0 0  1.683491276608443 0 0  1.701116134125304 0 0  1.718904673324128 0 0  1.736858414799339 0 0  1.754978895814663 0 0  1.773267661782904 0 0  1.791726281103402 0 0  1.810356325314689 0 0  1.8291593848892 0 0  1.848137076690385 0 0  1.867291007717254 0 0  1.886622833871288 0 0  1.90613418642363 0 0  1.925826753299799 0 0  1.945702199101513 0 0  1.96576223584749 0 0  1.986008569283268 0 0  2.006442931928877 0 0  2.02706707547783 0 0  2.047882750887917 0 0  2.06889175187935 0 0  2.090095860038271 0 0  2.111496891648636 0 0  2.133096679109554 0 0  2.154897066851056 0 0  2.176899916687499 0 0  2.199107102752146 0 0  2.22152053937028 0 0  2.244142122958061 0 0  2.266973806444078 0 0  2.290017523268154 0 0  2.313275249499252 0 0  2.336748971745516 0 0  2.360440702338606 0 0  2.384352453384031 0 0  2.408486280477412 0 0  2.432844240041185 0 0  2.457428414757088 0 0  2.482240901796653 0 0  2.507283830121838 0 0  2.532559332080812 0 0  2.558069568787417 0 0  2.583816724966441 0 0  2.60980299606584 0 0  2.636030600971886 0 0  2.662501790984011 0 0  2.689218818279327 0 0  2.716183964547616 0 0  2.743399548861297 0 0  2.77086788244719 0 0  2.798591312896326 0 0  2.826572223178268 0 0  2.854812990138617 0 0  2.883316031690714 0 0  2.912083780657189 0 0  2.941118704633482 0 0  2.970423276998917 0 0  3 0.02999999999994495 0  3 0.05999999999987042 0  3 0.089999999999783 0  3 0.119999999999701 0  3 0.149999999999619 0  3 0.179999999999692 0  3 0.2099999999997737 0  3 0.2399999999998511 0  3 0.2699999999999185 0  2.970138294777171 0.3 0  2.940375666438236 0.3 0  2.910711782853056 0.3 0  2.881146331305122 0.3 0  2.851678975030285 0.3 0  2.822309388626621 0.3 0  2.793037250095074 0.3 0  2.76386223529133 0.3 0  2.734784017903872 0.3 0  2.705802289276642 0.3 0  2.676916713794697 0.3 0  2.648126987654635 0.3 0  2.619432780406184 0.3 0  2.590833779385199 0.3 0  2.562329669847737 0.3 0  2.533920134950189 0.3 0  2.505604855727852 0.3 0  2.477383539822502 0.3 0  2.449255847639465 0.3 0  2.421221492569094 0.3 0  2.393280152486815 0.3 0  2.36543151914496 0.3 0  2.337675285481809 0.3 0  2.310011142385583 0.3 0  2.282438797441587 0.3 0  2.254957931061538 0.3 0  2.227568248063605 0.3 0  2.200269436651085 0.3 0  2.173061204949961 0.3 0  2.145943251515011 0.3 0  2.118915272469994 0.3 0  2.091976978084957 0.3 0  2.065128060700849 0.3 0  2.038368218849433 0.3 0  2.01169717777258 0.3 0  1.985114624111908 0.3 0  1.958620267850966 0.3 0  1.93221382054972 0.3 0  1.905894991850698 0.3 0  1.879663489459713 0.3 0  1.853519019126419 0.3 0  1.827461291053897 0.3 0  1.801490031354372 0.3 0  1.775604937580312 0.3 0  1.74980572560258 0.3 0  1.724092118631866 0.3 0  1.698463829173586 0.3 0  1.672920575782554 0.3 0  1.647462076974085 0.3 0  1.622088043536933 0.3 0  1.5967981978949 0.3 0  1.571592267767068 0.3 0  1.546469970305736 0.3 0  1.521431023814044 0.3 0  1.496475156230927 0.3 0  1.471602093687753 0.3 0  1.446811560490646 0.3 0  1.422103279101731 0.3 0  1.397476971708191 0.3 0  1.37293238939876 0.3 0  1.348469231419202 0.3 0  1.324087248732772 0.3 0  1.299786165921677 0.3 0  1.275565710847046 0.3 0  1.251425617644257 0.3 0  1.227365618676339 0.3 0  1.203385446174014 0.3 0  1.179484853067473 0.3 0  1.155663548773374 0.3 0  1.131921292279077 0.3 0  1.108257802159295 0.3 0  1.084672829009693 0.3 0  1.061166115303374 0.3 0  1.037737392995421 0.3 0  1.01438640299116 0.3 0  0.991112899770314 0.3 0  0.9679166155523955 0.3 0  0.944797284182564 0.3 0  0.921754678526042 0.3 0  0.8987885143602501 0.3 0  0.8758985548820624 0.3 0  0.8530845484099929 0.3 0  0.8303462351786988 0.3 0  0.8076833651172373 0.3 0  0.7850956864865304 0.3 0  0.7625829601354557 0.3 0  0.7401449314598274 0.3 0  0.717781337993959 0.3 0  0.6954919649675473 0.3 0  0.6732765357561226 0.3 0  0.6511348120768439 0.3 0  0.6290665642016573 0.3 0  0.6070715355430467 0.3 0  0.5851494825775325 0.3 0  0.5633001690203812 0.3 0  0.5415233562273221 0.3 0  0.5198187909431873 0.3 0  0.4981862401387795 0.3 0  0.4766254686134248 0.3 0  0.4551362360485234 0.3 0  0.4337182975262159 0.3 0  0.4123714223228037 0.3 0  0.3910953802377493 0.3 0  0.3698899313205595 0.3 0  0.3487548463710963 0.3 0  0.3276898864081783 0.3 0  0.3066948129116018 0.3 0  0.2857694003037476 0.3 0  0.2649134227095047 0.3 0  0.2441266417321288 0.3 0  0.2234088223399122 0.3 0  0.2027597568977288 0.3 0  0.1821792020676698 0.3 0  0.1616669305402443 0.3 0  0.1412227158799362 0.3 0  0.12084633013886 0.3 0  0.1005375673448281 0.3 0  0.08029618164595353 0.3 0  0.06012194778526769 0.3 0  0.04001466495039718 0.3 0  0.01997408913631205 0.3 0  0 0.2800000000000553 0  0 0.2600000000001105 0  0 0.2400000000001658 0  0 0.2200000000002211 0  0 0.2000000000002764 0  0 0.1800000000002244 0  0 0.1600000000001691 0  0 0.140000000000115 0  0 0.1200000000000564 0  1.13346801534201 0.01255848438672509 0  1.003577645172735 0.09351054173913405 0  0.9777559943702486 0.1034978156913738 0  0.9524533750752109 0.1040889939962738 0  0.9296242411226409 0.1041520033606139 0  0.9046110503652111 0.104409422380137 0  0.8777709649694228 0.1053360318797398 0  0.8483859145648608 0.1061007868330701 0  0.8162363822948977 0.1052777104363292 0  0.7893110024210437 0.1060761643971561 0  0.7587949382612539 0.1067265405088633 0  0.7280603867732535 0.1069398153264939 0  0.6947001989413015 0.1075609887579097 0  0.6590363283767549 0.1076715322596598 0  0.6210028614493155 0.1072970410408442 0  1.1953125 0.01353164693413185 0  1.258193991486058 0.01269648635163345 0  1.3201967268638 0.01407907077719561 0  1.383538555392096 0.01434101079053473 0  1.445312500000001 0.01303671693628424 0  1.508925448095738 0.01398525724792267 0  0.9939176689634008 0.1034638089837981 0  1.120967497222226 0.2796788492172345 0  1.572835902117391 0.01424132418857359 0  1.637573277451887 0.01212536916586023 0  1.709730776795181 0.01466855431023635 0  1.005631976950563 0.07074019818158772 0  1.784944696816299 0.01454708406461822 0  0.5805605730631225 0.1101465090472147 0  1.855621181165637 0.01550931272897607 0  0.5366111276616774 0.1096761308243709 0  1.935200147913231 0.01760344159641829 0  1.214922267975168 0.2799787705802257 0  1.31178773425331 0.2792
[...]
<PointData  Scalars="pressure"> 
<DataArray  type="Float64"  Name="pressure"  format="ascii">1.6034394234312821e-01  -1.6448567020690555e-01  -2.1637987535729425e-01  -1.6125354688260826e-01  -3.9220264312438829e-02  0.0000000000000000e+00  0.0000000000000000e+00  1.6035114683730822e-01  1.5441782020153252e-01  1.4858718755434316e-01  1.4285047776391863e-01  1.3720616634911181e-01  1.3165273993584545e-01  1.2618871975189333e-01  1.2081267100162039e-01  1.1552312389480920e-01  1.1031868292033235e-01  1.0519795966091271e-01  1.0015955037529412e-01  9.5202105520284852e-02  9.0324310882242465e-02  8.5524805307841706e-02  8.0802291794320316e-02  7.6155554459784086e-02  7.1583201544159161e-02  6.7084040018399335e-02  6.2656829414914142e-02  5.8300272848792814e-02  5.4013207865262931e-02  4.9794502817819705e-02  4.5642816041631749e-02  4.1557066085523023e-02  3.7535971213891801e-02  3.3578437507731741e-02  2.9683416131975098e-02  2.5849647966435317e-02  2.2075957076313685e-02  1.8361298064841249e-02  1.4704545219006297e-02  1.1104512197261737e-02  7.5602101086110953e-03  4.0704116301010290e-03  6.3409824834686134e-04  -2.7498958636114922e-03  -6.0826346731280879e-03  -9.3648172022910564e-03  -1.2598227111593129e-02  -1.5783480961830739e-02  -1.8921704649186986e-02  -2.2014147414322064e-02  -2.5061825085468729e-02  -2.8065214431518461e-02  -3.1026313371224190e-02  -3.3945625117475391e-02  -3.6824266982320122e-02  -3.9663367718503581e-02  -4.2463908865560715e-02  -4.5226937769549100e-02  -4.7953631184120465e-02  -5.0644914199730141e-02  -5.3301753363824436e-02  -5.5925102356383122e-02  -5.8516517762158320e-02  -6.1076393871274982e-02  -6.3605990389721923e-02  -6.6105958882168678e-02  -6.8578328995438864e-02  -7.1023482313494826e-02  -7.3441708882104093e-02  -7.5834726058035665e-02  -7.8204085933709297e-02  -8.0549505922801551e-02  -8.2873046386086127e-02  -8.5175393132309651e-02  -8.7456868976798177e-02  -8.9719038331639883e-02  -9.1962790561232438e-02  -9.4189050255059387e-02  -9.6399511932700355e-02  -9.8594322523978137e-02  -1.0077388279709931e-01  -1.0293895138252930e-01  -1.0509282158534272e-01  -1.0723464162574682e-01  -1.0936510247822626e-01  -1.1148602377528566e-01  -1.1359780701019299e-01  -1.1570137504326101e-01  -1.1779782680818708e-01  -1.1988895000292751e-01  -1.2197519973700902e-01  -1.2405679108252210e-01  -1.2613597842177326e-01  -1.2821359311666916e-01  -1.3029067221095167e-01  -1.3236847816246863e-01  -1.3444810107320571e-01  -1.3653100959471978e-01  -1.3861869697128215e-01  -1.4071279485847157e-01  -1.4281488778968571e-01  -1.4492633664394727e-01  -1.4704716739236073e-01  -1.4916297177044613e-01  -1.5153325163283371e-01  -1.5253052405384238e-01  -1.5583154697738810e-01  -1.5225348261265759e-01  -1.5740647286470810e-01  -1.5529607151033492e-01  -2.0338787000643679e-01  -1.8174872721567020e-01  -1.7513322074702412e-01  -1.7032444692543272e-01  -1.6708031246922178e-01  -1.6464616714667088e-01  -1.6282314476741983e-01  -1.6148793811540324e-01  -1.6068684709447967e-01  -1.6049182446552485e-01  -1.6090034579447174e-01  -1.6169566716606362e-01  -1.6207284270267153e-01  -1.6186889451996872e-01  -1.6119940500338345e-01  -1.6015499639692782e-01  -1.5877901076249901e-01  -1.5705579561357366e-01  -1.5497203111080834e-01  -1.5255624870331891e-01  -1.4982519400641758e-01  -1.4678216214329926e-01  -1.4344026072740140e-01  -1.3980990765964194e-01  -1.3590255374935314e-01  -1.3173820017104323e-01  -1.2732933155778767e-01  -1.2268797863860136e-01  -1.1783234599299390e-01  -1.1278134956516346e-01  -1.0754538593856293e-01  -1.0215519013180446e-01  -9.6629392992360397e-02  -9.0984271152101573e-02  -8.5251866768408166e-02  -7.9451150628872119e-02  -7.3613389723275968e-02  -6.7761404676232734e-02  -6.1919536473481591e-02  -5.6120861352692418e-02  -5.0387470313351966e-02  -4.4746734011907707e-02  -3.3732434730522190e-02  -2.8370630090629800e-02  -2.3144944296449140e-02  -1.8090842750345684e-02  -1.3236175404127803e-02  -8.5828982550075067e-03  -4.1583811454907584e-03  3.1859628810815471e-05  3.9384401580430462e-03  7.5872167537041823e-03  1.0978251547447686e-02  1.4091036592550392e-02  1.6928808578319014e-02  1.9499946652331703e-02  2.1809631090590503e-02  2.3864148446713397e-02  2.5680403601728841e-02  2.7260124779627564e-02  2.8618551520572414e-02  2.9787935568283266e-02  3.0757227399937657e-02  3.1557647659288958e-02  3.2203530436714874e-02  3.2703194655097370e-02  3.3078621319368874e-02  3.3333931958948966e-02  3.3501174680845729e-02  3.3570097835023960e-02  3.3561789444804729e-02  3.3481090500170542e-02  3.3335264216148963e-02  3.3133645572400443e-02  3.2885388129267897e-02  3.2594626699858506e-02  3.2261954040090621e-02  3.1894961001371354e-02  3.1494599451907190e-02  3.1064381237334807e-02  3.0606031919269815e-02  3.0120902790376547e-02  2.9610447264971095e-02  2.9075602353138330e-02  2.8516001622003944e-02  2.7932694846328820e-02  2.7323522289368858e-02  2.6687010521027822e-02  2.6023034700104711e-02  2.5325560376922913e-02  2.4591261565110600e-02  2.3818894669460491e-02  2.2998938810781699e-02  2.2130609423075744e-02  2.1203530519773518e-02  2.0220070216724614e-02  1.9169959599142177e-02  1.8048624707788868e-02  1.6864934116445254e-02  1.5605026520423426e-02  1.4283965628588913e-02  1.2898012480155704e-02  1.1450968227166642e-02  9.9464079818787753e-03  8.3940260367434301e-03  6.7997590145684921e-03  5.1608871586894586e-03  3.4940441806639859e-03  1.7863146713451715e-03  0.0000000000000000e+00  0.0000000000000000e+00  0.0000000000000000e+00  0.0000000000000000e+00  0.0000000000000000e+00  0.0000000000000000e+00  0.0000000000000000e+00  0.0000000000000000e+00  0.0000000000000000e+00  1.9473491108971794e-03  3.7537379801102916e-03  5.5182702862699761e-03  7.2166388071264950e-03  8.8548993188613066e-03  1.0436864857526771e-02  1.1967322644454024e-02  1.3450951885567202e-02  1.4891298667513561e-02  1.6291606663622529e-02  1.7652005054301683e-02  1.8972162335261018e-02  2.0247044905048105e-02  2.1471597048339525e-02  2.2636853588925702e-02  2.3731074838251737e-02  2.4747706756566325e-02  2.5669035156807199e-02  2.6484334186546207e-02  2.7182175135901380e-02  2.7751671776634915e-02  2.8183296450888077e-02  2.8470348269428149e-02  2.8601542504521568e-02  2.8576133278566736e-02  2.8384508580093854e-02  2.8026069354930433e-02  2.7492383623944100e-02  2.6780692646237798e-02  2.5890490319563510e-02  2.4813039392132495e-02  2.3544016360920985e-02  2.2099667336437829e-02  2.0468098305474886e-02  1.8622444410743677e-02  1.6602697808494042e-02  1.4388096329796540e-02  1.1978928074224867e-02  9.3776950233552311e-03  6.5909768435765638e-03  3.6126210671042647e-03  4.5506842616221358e-04  -2.8890165149976156e-03  -6.4084778382782906e-03  -1.0114107223873516e-02  -1.3990181802566648e-02  -1.8036983885530336e-02  -2.2245363066105375e-02  -2.6619137329034724e-02  -3.1143940565785951e-02  -3.5817187119278393e-02  -4.0627670033714751e-02  -4.5562637795512999e-02  -5.0613647825407351e-02  -5.5765168433575027e-02  -6.0994479559640907e-02  -6.6244445032163590e-02  -7.1558110634828462e-02  -7.6853512604883753e-02  -8.2071616432836517e-02  -8.7214850526968229e-02  -9.2212566943821017e-02  -9.7043906132166638e-02  -1.0160337182300300e-01  -1.0588348266174522e-01  -1.0977371480089435e-01  -1.1326146803343774e-01  -1.1623530001755165e-01  -1.1869856356511967e-01  -1.2051879754703276e-01  -1.2171065013257193e-01  -1.2220400137023935e-01  -1.2187265728393142e-01  -1.2088730863113091e-01  -1.1911970983100241e-01  -1.1658038154367519e-01  -1.1338893212898185e-01  -1.0957235186221943e-01  -1.0525610812879699e-01  -1.0051063889015603e-01  -9.5337205862093974e-02  -8.9869431144875916e-02  -8.4146541936322802e-02  -7.8258983449994629e-02  -7.2211463903096587e-02  -6.6031486821738442e-02  -5.9770137834869418e-02  -5.3440436801401765e-02  -4.7053160046208041e-02  -4.0631424080144196e-02  -3.4180268033860726e-02  -2.7717589049825929e-02  -2.1246304784269001e-02  -1.4768932306992621e-02  -8.2966665088851383e-03  -1.8307479187480370e-03  4.6276400693938211e-03  1.1075083824688513e-02  1.7508557813681117e-02  2.3926907530296838e-02  3.0329633641633932e-02  3.6715230101349292e-02  4.3083517003113025e-02  4.9432908388759758e-02  5.5763758211375150e-02  6.2075351576188834e-02  6.8367425360844891e-02  7.4639884893858338e-02  8.0892429242614902e-02  8.7125008851313718e-02  9.3337591482959489e-02  9.9530083098135463e-02  1.0570245867562712e-01  1.1185471978282793e-01  1.1798687853131895e-01  1.2409891478000160e-01  1.3019089921114221e-01  1.3626285350466918e-01  1.4231480695101228e-01  1.4834681407294009e-01  1.5435891020478723e-01  1.6035111905240212e-01  1.6035081978018750e-01  1.6035008856006860e-01  1.6034894048686477e-01  1.6034754582932062e-01  1.6034614973193337e-01  1.6034499925887086e-01  1.6034426316789668e-01  1.6034396497485659e-01  -1.5339795073188459e-01  -1.8630830314797964e-01  -1.5522525115202673e-01  -1.4179031893166152e-01  -1.3142756595817165e-01  -1.2100714452651100e-01  -1.1060069740132658e-01  -9.9855946199194204e-02  -8.8657425313420871e-02  -7.9620338615580988e-02  -6.9645434005349741e-02  -5.9813797194292209e-02  -4.9321709041197773e-02  -3.8252275395101461e-02  -2.6566376832531397e-02  -1.4147995211842002e-01  -1.2488157731265663e-01  -1.0499142651834903e-01  -8.2290487418654440e-02  -5.9296830381250859e-02  -3.6508726505861656e-02  -1.6757561077081734e-01  -1.2053302170904467e-01  -1.6059716041029008e-02  1.0429493199766912e-03  1.5097693484979413e-02  -1.6655912399756614e-01  2.4701201855574974e-02  -1.4235233955016970e-02  2.9904607370492133e-02  -9.0579471721350790e-04  3.2679084267398871e-02  -1.1094673252241186e-01  -9.3988428826408538e-02  3.3445495419427339e-02  -7.3768447410221871e-02  1.2904791207746895e-02  -4.7688599982681198e-02  3.2933459201105547e-02  2.7765077885541591e-02  -1.5897987357604995e-01  3.1630579894019205e-02  -2.4209268165427681e-02  -1.2091055075400660e-01  4.3167773590519570e-02  2.9816672405514427e-02  -1.1710285067206177e-03  6.0665473180707211e-02  7.8356106559529116e-03  2.7558716611308366e-02  1.5585860133558914e-02  7.7956533375266257e-02  -1.1469006501215234e-01  2.4957451999926338e-02  2.1263844554183935e-02  -1.0277391090934673e-01  2.5351910291636491e-02  2.1638934471734730e-02  -8.7002907315796851e-02  9.8156705463366897e-02  1.1217381252346639e-01  -1.1952142183805277e-02  1.8577053763871469e-02  1.4767379445057599e-02  2.7682831127751162e-02  -6.9327483718879854e-02  2.8432053002768746e-02  -1.4808499810177353e-01  -4.4284284649092946e-02  2.7378963116481997e-02  1.2962560809072440e-01  -2.4520246978369083e-02  1.0673127422449896e-02  2.4189916199870685e-02  -4.9429296685651672e-03  2.0884882043061485e-02  2.0799467047642940e-02  5.2598972275492428e-02  1.6913349440851658e-02  7.1559950840500597e-02  9.0337298984233372e-02  1.2661925720740918e-02  1.2193722750255283e-01  1.6368548317597133e-03  1.5476758811395394e-01  -1.6168821795599894e-01  8.1293408467103655e-03  5.8549532676667885e-03  1.3973982512786431e-01  -1.7314342382798409e-01  -1.6103860777386136e-01  -1.1685606095412479e-01  -5.6512513458265856e-02  7.3575571616032393e-03  3.3190268635925183e-02  1.4007985807125359e-01  -3.8344309881563871e-02  -6.2901034899526434e-02  -8.4010676308419269e-02  -1.0307573230375046e-01  8.8219034558008308e-02  2.8379680384447149e-02  6.9045812970204359e-02  1.0257883165193696e-01  2.6005243346790899e-02  2.3389458448650306e-02  5.1343865350283138e-02  2.6242928636042231e-02  2.8750880847597658e-02  3.5806408595881425e-02  3.0780548161933409e-02  3.2361108291897187e-02  3.3325864956389159e-02  3.3284826481501030e-02  -2.6131984639368350e-02  2.0216865446748795e-02  3.1596486568535483e-02  2.7640700802131827e-02  5.8320675673622707e-03  2.0523681896150583e-02  8.9021805880356610e-03  -6.6167704253974422e-03  1.3474735160209411e-03  -8.0877755244545893e-03  -2.0021013225939025e-02  1.5510739797701414e-01  -3.2176754787776582e-02  -4.3857045705190723e-02  -5.4629131093734316e-02  -6.4969046193954411e-02  -7.4713421213143241e-02  -8.3950484305734374e-02  -1.4791614070580511e-01  -9.5338241080392419e-02  -1.0621637291016527e-01  -1.1682112656278154e-01  -1.3375547219708872e-01  -1.2733162536504031e-01  -9.4147908425488092e-02  -1.1484261543102704e-01  -7.1782581437667844e-02  -4.7887714373721427e-02  -1.3768450676146660e-01  -1.5577904171630608e-01  1.7245393819330232e-03  1.5461078059640637e-01  4.5687800397809265e-03  -1.6146641527037373e-01  1.5535932283539822e-01  1.3765217497589478e-03  1.5125513046913000e-01  -1.6143539309014804e-01  -1.6109628167657558e-01  -1.6063716863183589e-01  -1.6113834782396377e-01  -1.6066170482230863e-01  -1.6149264763008930e-01  -1.6083471407999203e-01  -1.6195126315433928e-01  -1.6112250499441733e-01  -1.6227703021187750e-01  -1.6132944255809187e-01  -1.6220640119649568e-01  -1.6106360225546482e-01  -1.6157560854051944e-01  -1.6029574611972860e-01  -1.6048753321760370e-01  -1.5903215081603098e-01  -1.5899631522094848e-01  -1.5736900365434497e-01  -1.5691495986208168e-01  -1.5498592213148413e-01  -1.5859210247333280e-01  -1.5554421783314906e-01  -1.5276843175425669e-01  -1.5579667766075536e-01  -1.5773709550462767e-01  -1.5309392362834240e-01  -1.5017564042287396e-01  -1.5042591005244585e-01  -1.4713632309343316e-01  -1.4727178266574306e-01  -1.4365344663801990e-01  -1.4371028534916272e-01  -1.4001852125206041e-01  -1.3973881333364563e-01  -1.3530120104303189e-01  -1.3513467775485441e-01  -1.3087955046606320e-01  -1.3028206616352264e-01  -1.2586296279370623e-01  -1.2502285856570067e-01  -1.2051332417353831e-01  -1.1944332713677124e-01  -1.1489372128808301e-01  -1.1355197030611108e-01  -1.0903493081270872e-01  -1.0738360373740700e-01  -1.0295239895322131e-01  -1.0100408599920942e-01  -9.6728255282445122e-02  -9.4428620311526351e-02  -9.0402198338812301e-02  -8.7631637816094565e-02  -1.5382237098028420e-01  -1.5555150875464704e-01  -8.3992121777530654e-02  -8.0782696749988794e-02  -7.7583171633316905e-02  -7.4367725589258360e-02  -7.1272502839054425e-02  -6.7691443067431176e-02  -6.5067646064211934e-02  -6.1145274001738248e-02  -1.4900057755139287e-01  -5.9082215163408044e-02  -5.4722306804102915e-02  -5.3035996609987986e-02  -4.8444188130209426e-02  -4.7382302007451665e-02  -4.2456298955290184e-02  -1.5082128790415944e-01  -1.5265125041075636e-01  -1.6270729730671613e-01  -4.1896725582634707e-02  -3.6677317258419766e-02  -3.6698574876249487e-02  -3.1195118815860630e-02  -3.1767488523435812e-02  -2.6039628563184109e-02  -1.5896530496123651e-01  -2.7121823208007101e-02  -2.1179132073876117e-02  -1.3923929444099364e-01  -2.2745700811911459e-02  -1.6658826765722889e-02  -1.8667998575315096e-02  -1.2469676459073294e-02  -1.4802681081536668e-02  -8.5999436126019731e-03  -1.5966035816238314e-01  -1.2570156774374838e-01  -1.1278247762620474e-02  -5.0491967868943558e-03  -1.4683922832488236e-01  -1.4791865104957905e-01  -1.4535675331619219e-01  -1.0968214349337521e-01  -7.9442936563194674e-03  -1.6520273036840201e-03  -4.9576806834572646e-03  1.3877927295804968e-03  -2.1174690528484555e-03  4.0107383829430842e-03  -3.7366999967968370e-02  1.3488369958412005e-03  -2.0367900924024591e-02  -5.6914851918715474e-02  5.1402814466359754e-04  6.4131246740753651e-03  9.9058935443018595e-03  1.2140766841025731e-02  8.6621755840572690e-03  1.4153428953173936e-02  1.0786307924410325e-02  1.6030771040805962e-02  1.2702498880093562e-02  1.7659505755732739e-02  1.4458876488984642e-02  1.9163568080174442e-02  1.6115796639623758e-02  2.0483454050430717e-02  1.7552963950234774e-02  2.1691870706071661e-02  1.8994995158380192e-02  2.2898024396736910e-02  2.0285142639737554e-02  2.3886006545438255e-02  2.1503644007101193e-02  2.4745056811211145e-02  2.2482083004646228e-02  2.5529668733442486e-02  -7.7283613248353575e-02  -9.2474083732915310e-02  2.3485865299565954e-02  2.6191979445030322e-02  2.4439105236197221e-02  2.6824822851564810e-02  -1.4653529896568107e-01  -1.1138976378011486e-01  2.5290884706822905e-02  2.7346647719504392e-02  -1.2874391788332534e-01  -7.4960356888360252e-02  -1.4193980153298252e-01  -1.4257027733703212e-01  -1.4927687945996321e-01  -1.4278966399565846e-01  -1.4832066819522083e-01  -1.4225695573004299e-01  -1.4800298294036565e-01  -1.4115831170865262e-01  -1.4508517867715870e-01  -1.3906466702218723e-01  -1.4305780650127684e-01  -1.3660384243836735e-01  -1.3905668753937997e-01  -1.3352699391926626e-01  -1.3530229573347366e-01  -1.3029909998248806e-01  -1.3147037329303321e-01  -1.2683444417737205e-01  -1.2760834188198855e-01  -1.2330823372635970e-01  -1.2372761271418545e-01  -1.1969830481756472e-01  -1.1987267803080733e-01  -1.1607096962439239e-01  -1.1603434193803261e-01  -1.1247238387165044e-01  -1.1189408366539401e-01  -1.0859880639679967e-01  -1.0882565188272385e-01  -1.0521103091131638e-01  -1.0491487561599394e-01  -1.0159975006347137e-01  -1.0132259603337311e-01  -9.8033429905489758e-02  -9.7503940284940666e-02  -9.4408401603351774e-02  -1.2833142830801808e-01  -1.0497780586933110e-01  -1.1884242377423576e-01  -9.3817961499785815e-02  -9.0705541552547231e-02  -9.1063118637894361e-02  -8.7528770838077835e-02  -8.6962487871442951e-02  -8.3913125259306692e-02  -8.3175054367030557e-02  -8.0243775456636149e-02  -7.9403336582408293e-02  -7.6518820637722307e-02  -8.3744783210779508e-02  -1.5338478549528531e-01  -1.4437879601022749e-01  -7.5692726831375734e-02  -7.2736756595854712e-02  -7.3523259858550460e-02  -6.9744889366326182e-02  -6.8930827951660847e-02  -6.5985072041197579e-02  -6.5068697181636534e-02  -6.2200841999245485e-02  -1.3605587065277397e-01  -6.6537558082783207e-02  -6.1230019749878330e-02  -5.8430989078698425e-02  -1.2766580234887318e-01  -5.7505442409873528e-02  -5.4606024816699419e-02  -5.5805745424445150e-02  -5.1658583429938940e-02  -5.0671990373629169e-02  -4.7611248037014650e-02  -4.8557754521567929e-02  -4.4510883345843542e-02  -4.3581849871045186e-02  -4.0473208569744179e-02  -3.9537299743521714e-02  -3.6342679996092024e-02  -3.7304359613184720e-02  -3.3176089199042635e-02  -3.2186501367297879e-02  -2.9043905042308533e-02  -2.8094623098042129e-02  -2.4930041868810347e-02  -1.3719941145064413e-01  -1.0455768431648191e-01  -1.1946445871791211e-01  -2.4075892917416710e-02  -2.0848665003108884e-02  -2.1715424853667110e-02  -1.7480054414524042e-02  -1.6619608603686862e-02  -1.3250973389457896e-02  -1.8345677235471917e-02  2.5973943056384188e-02  2.7784514573288160e-02  2.6598048955174598e-02  2.8154846776319600e-02  2.7156304092678572e-02  2.8454513568251873e-02  -8.6256870326356691e-02  -4.7069303666301639e-02  -1.6251960176742999e-01  -1.2359582855193117e-02  -9.0576367727026215e-03  -9.6800965429343480e-02  2.3601212792948700e-02  2.7580700703187858e-02  1.5078966349727838e-02  2.7623365647451208e-02  2.8673331475957558e-02  2.9581327499466525e-02  2.9565853638319480e-02  2.8817600207307895e-02  2.9497347511412080e-02  2.8891481907004149e-02  2.9369410727677531e-02  2.8882391335753797e-02  2.9177338482886239e-02  2.8796889768131499e-02  2.8926195816618146e-02  2.8625834798900539e-02  2.8605452356958175e-02  2.8376237973798443e-02  2.8223873268241689e-02  2.8046357584547592e-02  2.7780248004684285e-02  2.7638035741795439e-02  2.7274350839382462e-02  2.7139951098151632e-02  2.6692721033550467e-02  2.6555561451791051e-02  2.6056241389559129e-02  2.5886576934695756e-02  2.5330317665047199e-02  2.5146812946533752e-02  2.4558941970870472e-02  2.4303791048227372e-02  2.3698069494522130e-02  2.3402365915606096e-02  2.2784536336189449e-02  2.9269259061629107e-02  -3.4205034811297191e-02  -6.8050195135917424e-02  -8.0446737036399020e-03  -4.7551598643664544e-03  -5.7591644525767215e-03  -1.3049842093452552e-03  -2.3533724016086754e-03  2.2045068514418677e-03  3.1322667476763703e-03  6.6616936079410870e-03  7.7088351074100824e-03  1.1210912982284625e-02  1.0261211602969601e-02  1.4798704758876222e-02  1.5606019414015121e-02  1.9300826727431965e-02  2.0093896506649046e-02  2