<?xml version="1.0"?>
<VTKFile type="UnstructuredGrid"  version="0.1"  >
<UnstructuredGrid>
<Piece  NumberOfPoints="2886" NumberOfCells="5412">
<Points>
<DataArray  type="Float64"  NumberOfComponents="3"  format="ascii">0 0.1 0  0.98 0.1 0  1 0.1 0  1 0 0  1.5 0 0  3 0 0  3 0.3 0  0 0.3 0  0.01975375321854102 0.1 0  0.03918897458218897 0.1 0  0.05831079002627837 0.1 0  0.07712425666319796 0.1 0  0.0956343475259058 0.1 0  0.1138459546796227 0.1 0  0.1317638870668193 0.1 0  0.1493928840275937 0.1 0  0.1667376092280033 0.1 0  0.1838026357802664 0.1 0  0.2005924801287244 0.1 0  0.2171115811543574 0.1 0  0.2333643037107681 0.1 0  0.2493549444060462 0.1 0  0.2650877293306821 0.1 0  0.2805668058011438 0.1 0  0.2957962848620976 0.1 0  0.3107801766802674 0.1 0  0.3255224447361181 0.1 0  0.3400269848175519 0.1 0  0.3542976327080778 0.1 0  0.3683381609158136 0.1 0  0.3821522744564845 0.1 0  0.3957436316838916 0.1 0  0.4091158196437086 0.1 0  0.4222723742184605 0.1 0  0.4352167733293057 0.1 0  0.4479524348643424 0.1 0  0.4604827295467524 0.1 0  0.4728109659990664 0.1 0  0.4849404035409129 0.1 0  0.4968742471455402 0.1 0  0.508615651843175 0.1 0  0.520167721130924 0.1 0  0.5315335063628542 0.1 0  0.5427160117228604 0.1 0  0.5537181940261912 0.1 0  0.564542961924507 0.1 0  0.575193173270606 0.1 0  0.5856716438765114 0.1 0  0.5959811458006617 0.1 0  0.6061243988680743 0.1 0  0.6161040893285659 0.1 0  0.6259228503970299 0.1 0  0.6355832809287655 0.1 0  0.6450879281079505 0.1 0  0.6544393102991295 0.1 0  0.663639896558931 0.1 0  0.6726921201956305 0.1 0  0.6815983691630338 0.1 0  0.6903610031396646 0.1 0  0.6989823343332418 0.1 0  0.7074646404270378 0.1 0  0.7158101645005117 0.1 0  0.7240211149852543 0.1 0  0.7320996585612525 0.1 0  0.7400479319727645 0.1 0  0.7478680336617921 0.1 0  0.755562036504958 0.1 0  0.7631319665092091 0.1 0  0.7705798279317605 0.1 0  0.777907588066146 0.1 0  0.7851171851013118 0.1 0  0.7922105226004981 0.1 0  0.7991894774550319 0.1 0  0.8060558928136696 0.1 0  0.812811583201334 0.1 0  0.8194583352091183 0.1 0  0.8259979035038147 0.1 0  0.8324320194413813 0.1 0  0.8387623808293405 0.1 0  0.8449906627004957 0.1 0  0.8511185094880469 0.1 0  0.8571475426008311 0.1 0  0.8630793533568246 0.1 0  0.8689155114558531 0.1 0  0.8746575581239063 0.1 0  0.8803070109173519 0.1 0  0.885865363938836 0.1 0  0.8913340851680313 0.1 0  0.8967146206523592 0.1 0  0.9020083930695622 0.1 0  0.9072167995950768 0.1 0  0.9123412183131177 0.1 0  0.9173830029719022 0.1 0  0.9223434865647732 0.1 0  0.9272239785872722 0.1 0  0.9320257720706087 0.1 0  0.9367501330378739 0.1 0  0.9413983102716995 0.1 0  0.9459715351562933 0.1 0  0.9504710127113115 0.1 0  0.9548979346500661 0.1 0  0.9592534708344373 0.1 0  0.9635387708980176 0.1 0  0.9677549682252325 0.1 0  0.971903177251235 0.1 0  0.9759844952956497 0.1 0  0.9840000000000086 0.1 0  0.987999999999974 0.1 0  0.9919999999999393 0.1 0  0.9959999999999913 0.1 0  1 0.09591793123533533 0  1 0.09133596463859224 0  1 0.08619288104391448 0  1 0.08041996484521211 0  1 0.07394008421771697 0  1 0.06666666567302955 0  1 0.05850252932209174 0  1 0.04933859630113544 0  1 0.03905242821848202 0  1 0.02750659386753798 0  1 0.01454683679239736 0  1.015625 0 0  1.03125 0 0  1.046875 0 0  1.0625 0 0  1.078125 0 0  1.09375 0 0  1.109375 0 0  1.125 0 0  1.140625 0 0  1.15625 0 0  1.171875 0 0  1.1875 0 0  1.203125 0 0  1.21875 0 0  1.234375 0 0  1.25 0 0  1.265625 0 0  1.28125 0 0  1.296875 0 0  1.3125 0 0  1.328125 0 0  1.34375 0 0  1.359375 0 0  1.375 0 0  1.390625 0 0  1.40625 0 0  1.421875 0 0  1.4375 0 0  1.453125 0 0  1.46875 0 0  1.484375 0 0  1.515920751924515 0 0  1.531989369316721 0 0  1.54820720925872 0 0  1.564575665560501 0 0  1.581096138674279 0 0  1.597770029901263 0 0  1.614598783332311 0 0  1.631583831055205 0 0  1.64872661129721 0 0  1.666028606716533 0 0  1.683491276608443 0 0  1.701116134125304 0 0  1.718904673324128 0 0  1.736858414799339 0 0  1.754978895814663 0 0  1.773267661782904 0 0  1.791726281103402 0 0  1.810356325314689 0 0  1.8291593848892 0 0  1.848137076690385 0 0  1.867291007717254 0 0  1.886622833871288 0 0  1.90613418642363 0 0  1.925826753299799 0 0  1.945702199101513 0 0  1.96576223584749 0 0  1.986008569283268 0 0  2.006442931928877 0 0  2.02706707547783 0 0  2.047882750887917 0 0  2.06889175187935 0 0  2.090095860038271 0 0  2.111496891648636 0 0  2.133096679109554 0 0  2.154897066851056 0 0  2.176899916687499 0 0  2.199107102752146 0 0  2.22152053937028 0 0  2.244142122958061 0 0  2.266973806444078 0 0  2.290017523268154 0 0  2.313275249499252 0 0  2.336748971745516 0 0  2.360440702338606 0 0  2.384352453384031 0 0  2.408486280477412 0 0  2.432844240041185 0 0  2.457428414757088 0 0  2.482240901796653 0 0  2.507283830121838 0 0  2.532559332080812 0 0  2.558069568787417 0 0  2.583816724966441 0 0  2.60980299606584 0 0  2.636030600971886 0 0  2.662501790984011 0 0  2.689218818279327 0 0  2.716183964547616 0 0  2.743399548861297 0 0  2.77086788244719 0 0  2.798591312896326 0 0  2.826572223178268 0 0  2.854812990138617 0 0  2.883316031690714 0 0  2.912083780657189 0 0  2.941118704633482 0 0  2.970423276998917 0 0  3 0.02999999999994495 0  3 0.05999999999987042 0  3 0.089999999999783 0  3 0.119999999999701 0  3 0.149999999999619 0  3 0.179999999999692 0  3 0.2099999999997737 0  3 0.2399999999998511 0  3 0.2699999999999185 0  2.970138294777171 0.3 0  2.940375666438236 0.3 0  2.910711782853056 0.3 0  2.881146331305122 0.3 0  2.851678975030285 0.3 0  2.822309388626621 0.3 0  2.793037250095074 0.3 0  2.76386223529133 0.3 0  2.734784017903872 0.3 0  2.705802289276642 0.3 0  2.676916713794697 0.3 0  2.648126987654635 0.3 0  2.619432780406184 0.3 0  2.590833779385199 0.3 0  2.562329669847737 0.3 0  2.533920134950189 0.3 0  2.505604855727852 0.3 0  2.477383539822502 0.3 0  2.449255847639465 0.3 0  2.421221492569094 0.3 0  2.393280152486815 0.3 0  2.36543151914496 0.3 0  2.337675285481809 0.3 0  2.310011142385583 0.3 0  2.282438797441587 0.3 0  2.254957931061538 0.3 0  2.227568248063605 0.3 0  2.200269436651085 0.3 0  2.173061204949961 0.3 0  2.145943251515011 0.3 0  2.118915272469994 0.3 0  2.091976978084957 0.3 0  2.065128060700849 0.3 0  2.038368218849433 0.3 0  2.01169717777258 0.3 0  1.985114624111908 0.3 0  1.958620267850966 0.3 0  1.93221382054972 0.3 0  1.905894991850698 0.3 0  1.879663489459713 0.3 0  1.853519019126419 0.3 0  1.827461291053897 0.3 0  1.801490031354372 0.3 0  1.775604937580312 0.3 0  1.74980572560258 0.3 0  1.724092118631866 0.3 0  1.698463829173586 0.3 0  1.672920575782554 0.3 0  1.647462076974085 0.3 0  1.622088043536933 0.3 0  1.5967981978949 0.3 0  1.571592267767068 0.3 0  1.546469970305736 0.3 0  1.521431023814044 0.3 0  1.496475156230927 0.3 0  1.471602093687753 0.3 0  1.446811560490646 0.3 0  1.422103279101731 0.3 0  1.397476971708191 0.3 0  1.37293238939876 0.3 0  1.348469231419202 0.3 0  1.324087248732772 0.3 0  1.299786165921677 0.3 0  1.275565710847046 0.3 0  1.251425617644257 0.3 0  1.227365618676339 0.3 0  1.203385446174014 0.3 0  1.179484853067473 0.3 0  1.155663548773374 0.3 0  1.131921292279077 0.3 0  1.108257802159295 0.3 0  1.084672829009693 0.3 0  1.061166115303374 0.3 0  1.037737392995421 0.3 0  1.01438640299116 0.3 0  0.991112899770314 0.3 0  0.9679166155523955 0.3 0  0.944797284182564 0.3 0  0.921754678526042 0.3 0  0.8987885143602501 0.3 0  0.8758985548820624 0.3 0  0.8530845484099929 0.3 0  0.8303462351786988 0.3 0  0.8076833651172373 0.3 0  0.7850956864865304 0.3 0  0.7625829601354557 0.3 0  0.7401449314598274 0.3 0  0.717781337993959 0.3 0  0.6954919649675473 0.3 0  0.6732765357561226 0.3 0  0.6511348120768439 0.3 0  0.6290665642016573 0.3 0  0.6070715355430467 0.3 0  0.5851494825775325 0.3 0  0.5633001690203812 0.3 0  0.5415233562273221 0.3 0  0.5198187909431873 0.3 0  0.4981862401387795 0.3 0  0.4766254686134248 0.3 0  0.4551362360485234 0.3 0  0.4337182975262159 0.3 0  0.4123714223228037 0.3 0  0.3910953802377493 0.3 0  0.3698899313205595 0.3 0  0.3487548463710963 0.3 0  0.3276898864081783 0.3 0  0.3066948129116018 0.3 0  0.2857694003037476 0.3 0  0.2649134227095047 0.3 0  0.2441266417321288 0.3 0  0.2234088223399122 0.3 0  0.2027597568977288 0.3 0  0.1821792020676698 0.3 0  0.1616669305402443 0.3 0  0.1412227158799362 0.3 0  0.12084633013886 0.3 0  0.1005375673448281 0.3 0  0.08029618164595353 0.3 0  0.06012194778526769 0.3 0  0.04001466495039718 0.3 0  0.01997408913631205 0.3 0  0 0.2800000000000553 0  0 0.2600000000001105 0  0 0.2400000000001658 0  0 0.2200000000002211 0  0 0.2000000000002764 0  0 0.1800000000002244 0  0 0.1600000000001691 0  0 0.140000000000115 0  0 0.1200000000000564 0  1.13346801534201 0.01255848438672509 0  1.003577645172735 0.09351054173913405 0  0.9777559943702486 0.1034978156913738 0  0.9524533750752109 0.1040889939962738 0  0.9296242411226409 0.1041520033606139 0  0.9046110503652111 0.104409422380137 0  0.8777709649694228 0.1053360318797398 0  0.8483859145648608 0.1061007868330701 0  0.8162363822948977 0.1052777104363292 0  0.7893110024210437 0.1060761643971561 0  0.7587949382612539 0.1067265405088633 0  0.7280603867732535 0.1069398153264939 0  0.6947001989413015 0.1075609887579097 0  0.6590363283767549 0.1076715322596598 0  0.6210028614493155 0.1072970410408442 0  1.1953125 0.01353164693413185 0  1.258193991486058 0.01269648635163345 0  1.3201967268638 0.01407907077719561 0  1.383538555392096 0.01434101079053473 0  1.445312500000001 0.01303671693628424 0  1.508925448095738 0.01398525724792267 0  0.9939176689634008 0.1034638089837981 0  1.120967497222226 0.2796788492172345 0  1.572835902117391 0.01424132418857359 0  1.637573277451887 0.01212536916586023 0  1.709730776795181 0.01466855431023635 0  1.005631976950563 0.07074019818158772 0  1.784944696816299 0.01454708406461822 0  0.5805605730631225 0.1101465090472147 0  1.855621181165637 0.01550931272897607 0  0.5366111276616774 0.1096761308243709 0  1.935200147913231 0.01760344159641829 0  1.214922267975168 0.2799787705802257 0  1.31178773425331 0.2792
[...]
<PointData  Scalars="pressure"> 
<DataArray  type="Float64"  Name="pressure"  format="ascii">1.6101592455994557e-01  -1.6519328963641958e-01  -2.1938468365391836e-01  -1.6323736711105707e-01  -4.2836712131387900e-02  0.0000000000000000e+00  0.0000000000000000e+00  1.6102249846984018e-01  1.5508980203115078e-01  1.4925917486120646e-01  1.4352247881837046e-01  1.3787818986248193e-01  1.3232479644611714e-01  1.2686082041846336e-01  1.2148482642530285e-01  1.1619534836332884e-01  1.1099099035095467e-01  1.0587036538869182e-01  1.0083207296966824e-01  9.5874765201371420e-02  9.0997128139605199e-02  8.6197805846651543e-02  8.1475503185275980e-02  7.6829002700080778e-02  7.2256923869492382e-02  6.7758072916822190e-02  6.3331212955368074e-02  5.8975056389246418e-02  5.4688440571865990e-02  5.0470235570594914e-02  4.6319114454234867e-02  4.2233995308060969e-02  3.8213610866540175e-02  3.4256866871470636e-02  3.0362718765200348e-02  2.6529920387064931e-02  2.2757308162678482e-02  1.9043839872192225e-02  1.5388399660575052e-02  1.1789816667108106e-02  8.2471028444264013e-03  4.7590525239599680e-03  1.3246541988600174e-03  -2.0572424795003556e-03  -5.3876932932162402e-03  -8.6673992593657417e-03  -1.1898089174124873e-02  -1.5080402376532119e-02  -1.8215427886473724e-02  -2.1304404600169691e-02  -2.4348334053709116e-02  -2.7347695019711418e-02  -3.0304428100496522e-02  -3.3219046468849905e-02  -3.6092642998085102e-02  -3.8926321209226906e-02  -4.1721052107134560e-02  -4.4477858819525956e-02  -4.7197886662381422e-02  -4.9882052276343548e-02  -5.2531302003141371e-02  -5.5146569004811026e-02  -5.7729356232857389e-02  -6.0280074116383212e-02  -6.2799943499236524e-02  -6.5289622226312516e-02  -6.7751018063272037e-02  -7.0184576123896864e-02  -7.2590573895682048e-02  -7.4970657762304119e-02  -7.7326321527014602e-02  -7.9657340224592019e-02  -8.1965655070651705e-02  -8.4251976506828613e-02  -8.6516612774292997e-02  -8.8761058070314189e-02  -9.0986178179611923e-02  -9.3192859202281819e-02  -9.5382730886273429e-02  -9.7555913080713610e-02  -9.9712876545008766e-02  -1.0185424722806262e-01  -1.0398319009709649e-01  -1.0609891258340282e-01  -1.0820205025240005e-01  -1.1029432487606834e-01  -1.1237609896214977e-01  -1.1444823863960789e-01  -1.1651172821674891e-01  -1.1856824128471158e-01  -1.2061817540306646e-01  -1.2266167522474448e-01  -1.2470078611814879e-01  -1.2673621059332021e-01  -1.2876883208539117e-01  -1.3079968985199095e-01  -1.3282965911942060e-01  -1.3485991869213201e-01  -1.3689160747359611e-01  -1.3892592424919817e-01  -1.4096378322641234e-01  -1.4300626850042297e-01  -1.4505058692376660e-01  -1.4707597057977814e-01  -1.4943152163959314e-01  -1.4992091951552661e-01  -1.5272353083607110e-01  -1.4697072564463384e-01  -1.5244759406258349e-01  -1.5134682399574118e-01  -2.0562730671925800e-01  -1.8373663556234235e-01  -1.7709038899358165e-01  -1.7227455037415598e-01  -1.6903259763396236e-01  -1.6660353654143367e-01  -1.6478710814633130e-01  -1.6345959916231920e-01  -1.6266557959353842e-01  -1.6247563319232564e-01  -1.6288539948254588e-01  -1.6367802447585669e-01  -1.6405610937875320e-01  -1.6385569226976776e-01  -1.6319213560809337e-01  -1.6215640555017141e-01  -1.6079249172717941e-01  -1.5908570080272838e-01  -1.5702346256379940e-01  -1.5463466024618991e-01  -1.5193639191744360e-01  -1.4893242334650439e-01  -1.4563607818863342e-01  -1.4205793150000878e-01  -1.3820953459652774e-01  -1.3411057948661398e-01  -1.2977326954064849e-01  -1.2520926986179853e-01  -1.2043614682601217e-01  -1.1547196352454436e-01  -1.1032615314746179e-01  -1.0502853529757489e-01  -9.9595902891423213e-02  -9.4043709917538895e-02  -8.8401990872620226e-02  -8.2688825549211323e-02  -7.6932594511567406e-02  -7.1155774240891076e-02  -6.5380535419184579e-02  -5.9638567096646264e-02  -5.3950685282792864e-02  -4.8343084978241822e-02  -3.7355117721199503e-02  -3.1984613564768505e-02  -2.6734769835540580e-02  -2.1640933312031083e-02  -1.6731217068669632e-02  -1.2007519793620032e-02  -7.4993301638269965e-03  -3.2123912900853544e-03  8.0349065648087695e-04  4.5716373034830641e-03  8.0899365204150607e-03  1.1336365834280179e-02  1.4312562903041814e-02  1.7024600311311595e-02  1.9475818674526607e-02  2.1670935788681109e-02  2.3624992896355893e-02  2.5338054004588141e-02  2.6825076569670345e-02  2.8116323747763364e-02  2.9200539308311957e-02  3.0108452904534400e-02  3.0853910032660987e-02  3.1445484168404349e-02  3.1905072378610427e-02  3.2237878748180980e-02  3.2475227146963791e-02  3.2608340326084333e-02  3.2658747693392630e-02  3.2631678783822837e-02  3.2535414866492848e-02  3.2379840766995974e-02  3.2174529916464113e-02  3.1923838516355968e-02  3.1628765177466621e-02  3.1296685708635974e-02  3.0928456800403258e-02  3.0526880137606304e-02  3.0093123821557446e-02  2.9627631944240763e-02  2.9130782353777453e-02  2.8602487035493111e-02  2.8041474590023541e-02  2.7447998746917859e-02  2.6819497159007236e-02  2.6154582435557287e-02  2.5454332025398627e-02  2.4713888649471237e-02  2.3931019354592836e-02  2.3110441999878096e-02  2.2242083975559150e-02  2.1333512753623787e-02  2.0373612205325874e-02  1.9371806764970374e-02  1.8319976181434019e-02  1.7214188723143477e-02  1.6065482532073943e-02  1.4859082407419413e-02  1.3606960455306101e-02  1.2302810126734455e-02  1.0945830517274342e-02  9.5359164940960785e-03  8.0755850077486001e-03  6.5681322338889403e-03  5.0046230971546252e-03  3.4024586269000385e-03  1.7458962180377968e-03  0.0000000000000000e+00  0.0000000000000000e+00  0.0000000000000000e+00  0.0000000000000000e+00  0.0000000000000000e+00  0.0000000000000000e+00  0.0000000000000000e+00  0.0000000000000000e+00  0.0000000000000000e+00  1.9315979290275150e-03  3.7319421121221313e-03  5.5011071707285371e-03  7.2149412532568269e-03  8.8772409874950890e-03  1.0486894347089876e-02  1.2043020533960081e-02  1.3543985098595236e-02  1.4987055325815762e-02  1.6370004601544405e-02  1.7688868102251301e-02  1.8941110529118423e-02  2.0121658668344523e-02  2.1227463905170080e-02  2.2253657353012914e-02  2.3193529918450743e-02  2.4046644416648336e-02  2.4801848846673663e-02  2.5454448439525639e-02  2.5998261553428322e-02  2.6426434551095890e-02  2.6732413599290662e-02  2.6910524741006268e-02  2.6950237069638963e-02  2.6849964755136353e-02  2.6598359908014228e-02  2.6193349598261376e-02  2.5623966906391023e-02  2.4885379163699668e-02  2.3975247186952407e-02  2.2883276439464691e-02  2.1604315565813492e-02  2.0153424914544339e-02  1.8516838024660597e-02  1.6668920489935297e-02  1.4650106631307181e-02  1.2437139783059624e-02  1.0031223526686813e-02  7.4339013949608103e-03  4.6527189096400761e-03  1.6788286344531567e-03  -1.4739831693030370e-03  -4.8144195761471061e-03  -8.3319279571955722e-03  -1.2037898497077086e-02  -1.5916834756938711e-02  -1.9970072833372550e-02  -2.4188848099162719e-02  -2.8576212864456885e-02  -3.3118432511937169e-02  -3.7812576799339657e-02  -4.2646926808982341e-02  -4.7607623658071731e-02  -5.2685567149052058e-02  -5.7864671003562913e-02  -6.3120281752218718e-02  -6.8391013673155324e-02  -7.3724581458626148e-02  -7.9033626174647223e-02  -8.4255715098975725e-02  -8.9394919851320323e-02  -9.4377560911731467e-02  -9.9182337878985533e-02  -1.0370129411504150e-01  -1.0792635297085736e-01  -1.1174531370103902e-01  -1.1514567349299883e-01  -1.1801398518902452e-01  -1.2035480410229948e-01  -1.2203465245502025e-01  -1.2307023864911024e-01  -1.2339260656166627e-01  -1.2287912180837926e-01  -1.2170582564719779e-01  -1.1975042021881263e-01  -1.1702957085641286e-01  -1.1366865543914653e-01  -1.0969941884094409e-01  -1.0524825399215970e-01  -1.0038542546441515e-01  -9.5114683127585947e-02  -8.9565569355079991e-02  -8.3776017849167897e-02  -7.7832216061764672e-02  -7.1738871502097623e-02  -6.5522127910818018e-02  -5.9230383817297672e-02  -5.2875768833516551e-02  -4.6468584242129400e-02  -4.0030545531245541e-02  -3.3566377409998661e-02  -2.7092905987074832e-02  -2.0612823614651651e-02  -1.4128509165476935e-02  -7.6504415154534300e-03  -1.1797556366805535e-03  5.2824310914528546e-03  1.1732939868472372e-02  1.8168941106856906e-02  2.4589378544710831e-02  3.0993781980352575e-02  3.7380756806196715e-02  4.3750135315838753e-02  5.0100454022644084e-02  5.6432041425750035e-02  6.2744242047733906e-02  6.9036814175312475e-02  7.5309676311671653e-02  8.1562553281094519e-02  8.7795405559816436e-02  9.4008207637590782e-02  1.0020087716718210e-01  1.0637339666170707e-01  1.1252577247282114e-01  1.1865802101704895e-01  1.2477012898604786e-01  1.3086216637319423e-01  1.3693415869276185e-01  1.4298613836456425e-01  1.4901816024509074e-01  1.5503026274007736e-01  1.6102247306914358e-01  1.6102219981832702e-01  1.6102153250503520e-01  1.6102048500460153e-01  1.6101921264448529e-01  1.6101793897157654e-01  1.6101688928190622e-01  1.6101621752201442e-01  1.6101594525259469e-01  -1.5546620300556552e-01  -1.8841779306767131e-01  -1.5308072568723036e-01  -1.3995910598774489e-01  -1.2987310762627921e-01  -1.1966204457482081e-01  -1.0941667587947414e-01  -9.8800929429031362e-02  -8.7705432095334032e-02  -7.8731850914439350e-02  -6.8811454158064153e-02  -5.9020738972305524e-02  -4.8561345204538850e-02  -3.7517205473849465e-02  -2.5850391798218540e-02  -1.4370227775023517e-01  -1.2736312218991772e-01  -1.0781059437331122e-01  -8.5477813619101270e-02  -6.2775442706973564e-02  -4.0118591868819074e-02  -1.6496700077687737e-01  -1.2199110994227916e-01  -1.9576274267827643e-02  -2.1619113940720847e-03  1.2404593296073215e-02  -1.6852273328139475e-01  2.2585162051782761e-02  -1.3533152373308861e-02  2.8265132738286351e-02  -2.1401520447989015e-04  3.1447314410504808e-02  -1.1287844247098762e-01  -9.6137326170010542e-02  3.2512757981142767e-02  -7.5933491647579149e-02  1.3589542424561819e-02  -4.9732317527298744e-02  3.2190079740264159e-02  2.8444988403597632e-02  -1.6099053161084378e-01  3.1043539621453130e-02  -2.6142699785482275e-02  -1.2182667700947770e-01  4.3844528368989714e-02  2.9331858594667755e-02  -3.0830528465822897e-03  6.1340081934155063e-02  5.9081643539205001e-03  2.7072387847571308e-02  1.3646073429801562e-02  7.8629916726685442e-02  -1.1506999342758333e-01  2.4339801847005713e-02  1.9324065407803171e-02  -1.0271690704833834e-01  2.3437151195119067e-02  2.0837196183490298e-02  -8.6671019718806058e-02  9.8829299198420609e-02  1.1284610014231439e-01  -1.3862245467357133e-02  1.7739350996439515e-02  1.4062987402663665e-02  2.5835812463714417e-02  -6.8840457238345434e-02  2.6823954581333503e-02  -1.4604336644539812e-01  -4.3694020092071309e-02  2.6108444222272379e-02  1.3029768597285832e-01  -2.3891880236370903e-02  1.0213964805250851e-02  2.3548165413989179e-02  -4.2945714949329779e-03  2.1546222637815984e-02  2.0602680421445130e-02  5.3266826015215388e-02  1.6967886698359230e-02  7.2229517751816255e-02  9.1007790757564960e-02  1.2747313591622707e-02  1.2260840975248323e-01  1.6073496368358066e-03  1.5543919831987590e-01  -1.6366457198301299e-01  8.1408452075153737e-03  5.6660104709287560e-03  1.4041114244394631e-01  -1.7512151697249403e-01  -1.6303009993410286e-01  -1.1858405119380146e-01  -5.5961669241805019e-02  8.0134353401239214e-03  3.3854908425802244e-02  1.4075187338351014e-01  -4.0338724130963947e-02  -6.5024869339723623e-02  -8.6187801103407277e-02  -1.0514770965448582e-01  8.8891950791886526e-02  2.6621145538641682e-02  6.9719745355159929e-02  1.0324968436780829e-01  2.5036515997364561e-02  2.2672955880049514e-02  5.2019472627114448e-02  2.5700481285727435e-02  2.8282744750560293e-02  3.6484492424633544e-02  3.0253459527568336e-02  3.1701184247930676e-02  3.2485038245428054e-02  3.2219924225235758e-02  -2.9725755998008599e-02  2.0898960231350818e-02  3.0175053104925794e-02  2.5771049090724009e-02  6.5200672867439897e-03  1.8123757930925206e-02  5.9471947290379249e-03  -9.9931605144800845e-03  1.3276828491131402e-03  -7.3909849058448980e-03  -1.9313064850183373e-02  1.5577924409781146e-01  -3.1452329599902261e-02  -4.3110182215003796e-02  -5.3853445040936108e-02  -6.4155806806632881e-02  -7.3853536208650220e-02  -8.3033312371448467e-02  -1.5005072939756040e-01  -9.4328470979414006e-02  -1.0508962252447779e-01  -1.1554577069338666e-01  -1.3609369329251136e-01  -1.2586644860981658e-01  -9.7149092632779210e-02  -1.1749373434298806e-01  -7.5117325764971279e-02  -5.1456766941920098e-02  -1.3597386549091589e-01  -1.5192486558171817e-01  1.6967428964407740e-03  1.5528219093675821e-01  4.5444222907963412e-03  -1.6345076517301299e-01  1.5603129411011421e-01  1.3501337158511775e-03  1.5192647896715775e-01  -1.6342223543554191e-01  -1.6308511035884218e-01  -1.6263072122173905e-01  -1.6312691520444422e-01  -1.6265472656394184e-01  -1.6347969637700957e-01  -1.6282688759709915e-01  -1.6393716690387952e-01  -1.6311376927534701e-01  -1.6426331633446561e-01  -1.6332116377326106e-01  -1.6419474964495021e-01  -1.6305829449205431e-01  -1.6356580854934635e-01  -1.6229393294959127e-01  -1.6247477998583701e-01  -1.6103068659857742e-01  -1.6097247947546967e-01  -1.5936142489086672e-01  -1.5886772785434169e-01  -1.5696955532541856e-01  -1.6051321718741868e-01  -1.5756249951256285e-01  -1.5478540852188361e-01  -1.5767340329261215e-01  -1.5955770350291043e-01  -1.5513848322897578e-01  -1.5222958709923745e-01  -1.5250465614127673e-01  -1.4923289132422093e-01  -1.4939164623441095e-01  -1.4579712327033781e-01  -1.4587896720794907e-01  -1.4221732390590180e-01  -1.4196461834315127e-01  -1.3756363193594706e-01  -1.3742787792625596e-01  -1.3321158333052929e-01  -1.3264926429421758e-01  -1.2826895441770314e-01  -1.2747175414013645e-01  -1.2299702912895211e-01  -1.2197926632944971e-01  -1.1745698980492771e-01  -1.1617884550602996e-01  -1.1167872039886130e-01  -1.1010346253940291e-01  -1.0567322478706956e-01  -1.0381572891425422e-01  -9.9522921087506572e-02  -9.7323721353812620e-02  -9.3262919984572881e-02  -9.0619238349181702e-02  -1.5557826473812805e-01  -1.5720464710983700e-01  -8.6904044028617511e-02  -8.3834679991446628e-02  -8.0543406508296861e-02  -7.7476736368600266e-02  -7.4257104382266848e-02  -7.0843976526486371e-02  -6.8063926805983138e-02  -6.4323900940145673e-02  -1.5101729161017233e-01  -6.2078597946375859e-02  -5.7910076273004513e-02  -5.5975947237102128e-02  -5.1616625554503921e-02  -5.0322773592647994e-02  -4.5603020026086329e-02  -1.5241156845332332e-01  -1.5407128394631173e-01  -1.6469200421551403e-01  -4.4786435421328978e-02  -3.9778271697923202e-02  -3.9526257999266692e-02  -3.4232292750503185e-02  -3.4521918533352632e-02  -2.9000127864860212e-02  -1.6067175941757189e-01  -2.9794216203958244e-02  -2.4049408476711449e-02  -1.4139534301566667e-01  -2.5329355779330501e-02  -1.9430162936230566e-02  -2.1161335893819116e-02  -1.5136199261164831e-02  -1.7208849232293717e-02  -1.1158624970151904e-02  -1.6166441157749992e-01  -1.2805487356774561e-01  -1.3594646072580908e-02  -7.5004553058518782e-03  -1.4822936868812314e-01  -1.4910817168791735e-01  -1.4690797956654408e-01  -1.1224473459143013e-01  -1.0177187543650259e-02  -3.9989971375429915e-03  -7.1089400111984261e-03  -8.5807285725530177e-04  -4.1969297494015628e-03  1.8589431297848318e-03  -4.0691307397430425e-02  -1.2124856161345897e-03  -2.3502271864577783e-02  -6.0246959841148633e-02  -1.5023562486903047e-03  4.3464093852510818e-03  7.7052924458966025e-03  1.0044941444716002e-02  6.6707993978095785e-03  1.2152984938397279e-02  8.8608795564139378e-03  1.4118299729967157e-02  1.0835432620819626e-02  1.5826810640072630e-02  1.2642204021254284e-02  1.7399524218697796e-02  1.4342316874514757e-02  1.8779967126018898e-02  1.5814095347936308e-02  2.0039788644338977e-02  1.7287508513308771e-02  2.1294921426085293e-02  1.8602995536058015e-02  2.2322682149966310e-02  1.9844035325379407e-02  2.3216371059514827e-02  2.0835212023368157e-02  2.4030474484325607e-02  -8.0449922653128003e-02  -9.5199461111795530e-02  2.1853444942709046e-02  2.4719074307370317e-02  2.2822581928136670e-02  2.5375842245287852e-02  -1.4867404443656768e-01  -1.1407461658910996e-01  2.3688101504651119e-02  2.5920629691192094e-02  -1.3114521102887186e-01  -7.7788574049153902e-02  -1.4313462415741485e-01  -1.4353312475545640e-01  -1.5017977059463658e-01  -1.4346620419789036e-01  -1.4885439036062287e-01  -1.4262218003142488e-01  -1.4811581060281712e-01  -1.4119437093385601e-01  -1.4483623811021379e-01  -1.3880636693153334e-01  -1.4247969310592992e-01  -1.3609628218833453e-01  -1.3824303968103677e-01  -1.3283286550676690e-01  -1.3433507962094141e-01  -1.2947253238252970e-01  -1.3041661544262606e-01  -1.2592571500203442e-01  -1.2651272584199597e-01  -1.2235375361019271e-01  -1.2262075987960526e-01  -1.1872284505165305e-01  -1.1877161602059624e-01  -1.1508940941403951e-01  -1.1494952834587904e-01  -1.1149418131464858e-01  -1.1083496333525525e-01  -1.0763855523223387e-01  -1.0795710935139817e-01  -1.0434056812930387e-01  -1.0396531630500000e-01  -1.0073061975456539e-01  -1.0037917667634159e-01  -9.7166845486461068e-02  -9.6577727903841878e-02  -9.3549587112662896e-02  -1.2780420884769580e-01  -1.0421461189802766e-01  -1.1802424274216090e-01  -9.2907936507886105e-02  -8.9855089235373400e-02  -9.0273823340281542e-02  -8.6739375555466625e-02  -8.6120634779174435e-02  -8.3123048788083936e-02  -8.2342515951633152e-02  -7.9456373908321110e-02  -7.8580554387412849e-02  -7.5737473267241742e-02  -8.3009606204334133e-02  -1.5374852560383009e-01  -1.4341636619286641e-01  -7.4879750531828923e-02  -7.1960317401435506e-02  -7.2783026355359978e-02  -6.9005591646965153e-02  -6.8159097334496058e-02  -6.5245461269059418e-02  -6.4302416484686972e-02  -6.1462804282057373e-02  -1.3481900470664232e-01  -6.5831872522646370e-02  -6.0469364938442717e-02  -5.7694588314292326e-02  -1.2641951671725363e-01  -5.6750300424796389e-02  -5.3872588219390227e-02  -5.5093616351440236e-02  -5.0946892894635880e-02  -4.9941318657748819e-02  -4.6899363225844079e-02  -4.7867552454667089e-02  -4.3817580404950311e-02  -4.2870147500078025e-02  -3.9777723107001936e-02  -3.8826309620090912e-02  -3.5645766457008329e-02  -3.6624118865956040e-02  -3.2492461966436757e-02  -3.1488854033088196e-02  -2.8357878487565189e-02  -2.7397017951080703e-02  -2.4242555527582837e-02  -1.3773285331907800e-01  -1.0353929416177787e-01  -1.1828071382720834e-01  -2.3378735418526607e-02  -2.0160267297576751e-02  -2.1037450559880027e-02  -1.6799978523984269e-02  -1.5930862194733723e-02  -1.2569277821710282e-02  -1.7676236777094845e-02  2.4377125789807753e-02  2.6376774530341086e-02  2.5008812449862160e-02  2.6766584870870441e-02  2.5576957854223838e-02  2.7085241910075952e-02  -8.5377139685918688e-02  -4.9724816942093755e-02  -1.6450193066124857e-01  -1.1670816117072831e-02  -8.3750043739262703e-03  -9.5833509485171067e-02  2.1916369294659389e-02  2.6196953811082731e-02  1.2865269464609011e-02  2.6054570266396609e-02  2.7323429720357475e-02  2.8445441680281694e-02  2.8456307373440133e-02  2.7487441185632660e-02  2.8415721448961439e-02  2.7585170981200554e-02  2.8316820666089593e-02  2.7600306390600508e-02  2.8150530456136871e-02  2.7543611793912352e-02  2.7926991785976622e-02  2.7402857788257139e-02  2.7631958861265862e-02  2.7185713708225714e-02  2.7277879921753730e-02  2.6896093946457058e-02  2.6862468719360873e-02  2.6536863540323058e-02  2.6388267724913515e-02  2.6097664153443334e-02  2.5839550214257559e-02  2.5576386049837904e-02  2.5239711681392912e-02  2.4977473126620627e-02  2.4552598763580034e-02  2.4318219304279236e-02  2.3825456106687917e-02  2.3563836382575282e-02  2.3012121848664940e-02  2.2755190655941535e-02  2.2151514707242692e-02  2.8048442945306184e-02  -3.3538188670835835e-02  -6.7252882631200051e-02  -7.3562155599041267e-03  -4.0720299805427065e-03  -5.0823569183959657e-03  -6.2692899612338279e-04  -1.6818305051415671e-03  2.8779726004594820e-03  3.8112164929840747e-03  7.3365815422606843e-03  8.3883058295761200e-03  1.1886846092176839e-02  1.0932585507062944e-02  1.5471492315963658e-02  1.6282623780175400e-02  1.9974671926949693e-02  2.0770842973621046e