<?xml version="1.0"?>
<VTKFile type="UnstructuredGrid"  version="0.1"  >
<UnstructuredGrid>
<Piece  NumberOfPoints="2886" NumberOfCells="5412">
<Points>
<DataArray  type="Float64"  NumberOfComponents="3"  format="ascii">0 0.1 0  0.98 0.1 0  1 0.1 0  1 0 0  1.5 0 0  3 0 0  3 0.3 0  0 0.3 0  0.01975375321854102 0.1 0  0.03918897458218897 0.1 0  0.05831079002627837 0.1 0  0.07712425666319796 0.1 0  0.0956343475259058 0.1 0  0.1138459546796227 0.1 0  0.1317638870668193 0.1 0  0.1493928840275937 0.1 0  0.1667376092280033 0.1 0  0.1838026357802664 0.1 0  0.2005924801287244 0.1 0  0.2171115811543574 0.1 0  0.2333643037107681 0.1 0  0.2493549444060462 0.1 0  0.2650877293306821 0.1 0  0.2805668058011438 0.1 0  0.2957962848620976 0.1 0  0.3107801766802674 0.1 0  0.3255224447361181 0.1 0  0.3400269848175519 0.1 0  0.3542976327080778 0.1 0  0.3683381609158136 0.1 0  0.3821522744564845 0.1 0  0.3957436316838916 0.1 0  0.4091158196437086 0.1 0  0.4222723742184605 0.1 0  0.4352167733293057 0.1 0  0.4479524348643424 0.1 0  0.4604827295467524 0.1 0  0.4728109659990664 0.1 0  0.4849404035409129 0.1 0  0.4968742471455402 0.1 0  0.508615651843175 0.1 0  0.520167721130924 0.1 0  0.5315335063628542 0.1 0  0.5427160117228604 0.1 0  0.5537181940261912 0.1 0  0.564542961924507 0.1 0  0.575193173270606 0.1 0  0.5856716438765114 0.1 0  0.5959811458006617 0.1 0  0.6061243988680743 0.1 0  0.6161040893285659 0.1 0  0.6259228503970299 0.1 0  0.6355832809287655 0.1 0  0.6450879281079505 0.1 0  0.6544393102991295 0.1 0  0.663639896558931 0.1 0  0.6726921201956305 0.1 0  0.6815983691630338 0.1 0  0.6903610031396646 0.1 0  0.6989823343332418 0.1 0  0.7074646404270378 0.1 0  0.7158101645005117 0.1 0  0.7240211149852543 0.1 0  0.7320996585612525 0.1 0  0.7400479319727645 0.1 0  0.7478680336617921 0.1 0  0.755562036504958 0.1 0  0.7631319665092091 0.1 0  0.7705798279317605 0.1 0  0.777907588066146 0.1 0  0.7851171851013118 0.1 0  0.7922105226004981 0.1 0  0.7991894774550319 0.1 0  0.8060558928136696 0.1 0  0.812811583201334 0.1 0  0.8194583352091183 0.1 0  0.8259979035038147 0.1 0  0.8324320194413813 0.1 0  0.8387623808293405 0.1 0  0.8449906627004957 0.1 0  0.8511185094880469 0.1 0  0.8571475426008311 0.1 0  0.8630793533568246 0.1 0  0.8689155114558531 0.1 0  0.8746575581239063 0.1 0  0.8803070109173519 0.1 0  0.885865363938836 0.1 0  0.8913340851680313 0.1 0  0.8967146206523592 0.1 0  0.9020083930695622 0.1 0  0.9072167995950768 0.1 0  0.9123412183131177 0.1 0  0.9173830029719022 0.1 0  0.9223434865647732 0.1 0  0.9272239785872722 0.1 0  0.9320257720706087 0.1 0  0.9367501330378739 0.1 0  0.9413983102716995 0.1 0  0.9459715351562933 0.1 0  0.9504710127113115 0.1 0  0.9548979346500661 0.1 0  0.9592534708344373 0.1 0  0.9635387708980176 0.1 0  0.9677549682252325 0.1 0  0.971903177251235 0.1 0  0.9759844952956497 0.1 0  0.9840000000000086 0.1 0  0.987999999999974 0.1 0  0.9919999999999393 0.1 0  0.9959999999999913 0.1 0  1 0.09591793123533533 0  1 0.09133596463859224 0  1 0.08619288104391448 0  1 0.08041996484521211 0  1 0.07394008421771697 0  1 0.06666666567302955 0  1 0.05850252932209174 0  1 0.04933859630113544 0  1 0.03905242821848202 0  1 0.02750659386753798 0  1 0.01454683679239736 0  1.015625 0 0  1.03125 0 0  1.046875 0 0  1.0625 0 0  1.078125 0 0  1.09375 0 0  1.109375 0 0  1.125 0 0  1.140625 0 0  1.15625 0 0  1.171875 0 0  1.1875 0 0  1.203125 0 0  1.21875 0 0  1.234375 0 0  1.25 0 0  1.265625 0 0  1.28125 0 0  1.296875 0 0  1.3125 0 0  1.328125 0 0  1.34375 0 0  1.359375 0 0  1.375 0 0  1.390625 0 0  1.40625 0 0  1.421875 0 0  1.4375 0 0  1.453125 0 0  1.46875 0 0  1.484375 0 0  1.515920751924515 0 0  1.531989369316721 0 0  1.54820720925872 0 0  1.564575665560501 0 0  1.581096138674279 0 0  1.597770029901263 0 0  1.614598783332311 0 0  1.631583831055205 0 0  1.64872661129721 0 0  1.666028606716533 0 0  1.683491276608443 0 0  1.701116134125304 0 0  1.718904673324128 0 0  1.736858414799339 0 0  1.754978895814663 0 0  1.773267661782904 0 0  1.791726281103402 0 0  1.810356325314689 0 0  1.8291593848892 0 0  1.848137076690385 0 0  1.867291007717254 0 0  1.886622833871288 0 0  1.90613418642363 0 0  1.925826753299799 0 0  1.945702199101513 0 0  1.96576223584749 0 0  1.986008569283268 0 0  2.006442931928877 0 0  2.02706707547783 0 0  2.047882750887917 0 0  2.06889175187935 0 0  2.090095860038271 0 0  2.111496891648636 0 0  2.133096679109554 0 0  2.154897066851056 0 0  2.176899916687499 0 0  2.199107102752146 0 0  2.22152053937028 0 0  2.244142122958061 0 0  2.266973806444078 0 0  2.290017523268154 0 0  2.313275249499252 0 0  2.336748971745516 0 0  2.360440702338606 0 0  2.384352453384031 0 0  2.408486280477412 0 0  2.432844240041185 0 0  2.457428414757088 0 0  2.482240901796653 0 0  2.507283830121838 0 0  2.532559332080812 0 0  2.558069568787417 0 0  2.583816724966441 0 0  2.60980299606584 0 0  2.636030600971886 0 0  2.662501790984011 0 0  2.689218818279327 0 0  2.716183964547616 0 0  2.743399548861297 0 0  2.77086788244719 0 0  2.798591312896326 0 0  2.826572223178268 0 0  2.854812990138617 0 0  2.883316031690714 0 0  2.912083780657189 0 0  2.941118704633482 0 0  2.970423276998917 0 0  3 0.02999999999994495 0  3 0.05999999999987042 0  3 0.089999999999783 0  3 0.119999999999701 0  3 0.149999999999619 0  3 0.179999999999692 0  3 0.2099999999997737 0  3 0.2399999999998511 0  3 0.2699999999999185 0  2.970138294777171 0.3 0  2.940375666438236 0.3 0  2.910711782853056 0.3 0  2.881146331305122 0.3 0  2.851678975030285 0.3 0  2.822309388626621 0.3 0  2.793037250095074 0.3 0  2.76386223529133 0.3 0  2.734784017903872 0.3 0  2.705802289276642 0.3 0  2.676916713794697 0.3 0  2.648126987654635 0.3 0  2.619432780406184 0.3 0  2.590833779385199 0.3 0  2.562329669847737 0.3 0  2.533920134950189 0.3 0  2.505604855727852 0.3 0  2.477383539822502 0.3 0  2.449255847639465 0.3 0  2.421221492569094 0.3 0  2.393280152486815 0.3 0  2.36543151914496 0.3 0  2.337675285481809 0.3 0  2.310011142385583 0.3 0  2.282438797441587 0.3 0  2.254957931061538 0.3 0  2.227568248063605 0.3 0  2.200269436651085 0.3 0  2.173061204949961 0.3 0  2.145943251515011 0.3 0  2.118915272469994 0.3 0  2.091976978084957 0.3 0  2.065128060700849 0.3 0  2.038368218849433 0.3 0  2.01169717777258 0.3 0  1.985114624111908 0.3 0  1.958620267850966 0.3 0  1.93221382054972 0.3 0  1.905894991850698 0.3 0  1.879663489459713 0.3 0  1.853519019126419 0.3 0  1.827461291053897 0.3 0  1.801490031354372 0.3 0  1.775604937580312 0.3 0  1.74980572560258 0.3 0  1.724092118631866 0.3 0  1.698463829173586 0.3 0  1.672920575782554 0.3 0  1.647462076974085 0.3 0  1.622088043536933 0.3 0  1.5967981978949 0.3 0  1.571592267767068 0.3 0  1.546469970305736 0.3 0  1.521431023814044 0.3 0  1.496475156230927 0.3 0  1.471602093687753 0.3 0  1.446811560490646 0.3 0  1.422103279101731 0.3 0  1.397476971708191 0.3 0  1.37293238939876 0.3 0  1.348469231419202 0.3 0  1.324087248732772 0.3 0  1.299786165921677 0.3 0  1.275565710847046 0.3 0  1.251425617644257 0.3 0  1.227365618676339 0.3 0  1.203385446174014 0.3 0  1.179484853067473 0.3 0  1.155663548773374 0.3 0  1.131921292279077 0.3 0  1.108257802159295 0.3 0  1.084672829009693 0.3 0  1.061166115303374 0.3 0  1.037737392995421 0.3 0  1.01438640299116 0.3 0  0.991112899770314 0.3 0  0.9679166155523955 0.3 0  0.944797284182564 0.3 0  0.921754678526042 0.3 0  0.8987885143602501 0.3 0  0.8758985548820624 0.3 0  0.8530845484099929 0.3 0  0.8303462351786988 0.3 0  0.8076833651172373 0.3 0  0.7850956864865304 0.3 0  0.7625829601354557 0.3 0  0.7401449314598274 0.3 0  0.717781337993959 0.3 0  0.6954919649675473 0.3 0  0.6732765357561226 0.3 0  0.6511348120768439 0.3 0  0.6290665642016573 0.3 0  0.6070715355430467 0.3 0  0.5851494825775325 0.3 0  0.5633001690203812 0.3 0  0.5415233562273221 0.3 0  0.5198187909431873 0.3 0  0.4981862401387795 0.3 0  0.4766254686134248 0.3 0  0.4551362360485234 0.3 0  0.4337182975262159 0.3 0  0.4123714223228037 0.3 0  0.3910953802377493 0.3 0  0.3698899313205595 0.3 0  0.3487548463710963 0.3 0  0.3276898864081783 0.3 0  0.3066948129116018 0.3 0  0.2857694003037476 0.3 0  0.2649134227095047 0.3 0  0.2441266417321288 0.3 0  0.2234088223399122 0.3 0  0.2027597568977288 0.3 0  0.1821792020676698 0.3 0  0.1616669305402443 0.3 0  0.1412227158799362 0.3 0  0.12084633013886 0.3 0  0.1005375673448281 0.3 0  0.08029618164595353 0.3 0  0.06012194778526769 0.3 0  0.04001466495039718 0.3 0  0.01997408913631205 0.3 0  0 0.2800000000000553 0  0 0.2600000000001105 0  0 0.2400000000001658 0  0 0.2200000000002211 0  0 0.2000000000002764 0  0 0.1800000000002244 0  0 0.1600000000001691 0  0 0.140000000000115 0  0 0.1200000000000564 0  1.13346801534201 0.01255848438672509 0  1.003577645172735 0.09351054173913405 0  0.9777559943702486 0.1034978156913738 0  0.9524533750752109 0.1040889939962738 0  0.9296242411226409 0.1041520033606139 0  0.9046110503652111 0.104409422380137 0  0.8777709649694228 0.1053360318797398 0  0.8483859145648608 0.1061007868330701 0  0.8162363822948977 0.1052777104363292 0  0.7893110024210437 0.1060761643971561 0  0.7587949382612539 0.1067265405088633 0  0.7280603867732535 0.1069398153264939 0  0.6947001989413015 0.1075609887579097 0  0.6590363283767549 0.1076715322596598 0  0.6210028614493155 0.1072970410408442 0  1.1953125 0.01353164693413185 0  1.258193991486058 0.01269648635163345 0  1.3201967268638 0.01407907077719561 0  1.383538555392096 0.01434101079053473 0  1.445312500000001 0.01303671693628424 0  1.508925448095738 0.01398525724792267 0  0.9939176689634008 0.1034638089837981 0  1.120967497222226 0.2796788492172345 0  1.572835902117391 0.01424132418857359 0  1.637573277451887 0.01212536916586023 0  1.709730776795181 0.01466855431023635 0  1.005631976950563 0.07074019818158772 0  1.784944696816299 0.01454708406461822 0  0.5805605730631225 0.1101465090472147 0  1.855621181165637 0.01550931272897607 0  0.5366111276616774 0.1096761308243709 0  1.935200147913231 0.01760344159641829 0  1.214922267975168 0.2799787705802257 0  1.31178773425331 0.2792
[...]
<PointData  Scalars="pressure"> 
<DataArray  type="Float64"  Name="pressure"  format="ascii">1.5765085576118099e-01  -1.6633806599742998e-01  -2.1710251055564708e-01  -1.6255378423670905e-01  -4.3300868803039898e-02  0.0000000000000000e+00  0.0000000000000000e+00  1.5765771447597857e-01  1.5172473332513964e-01  1.4589410317959128e-01  1.4015739981760897e-01  1.3451309868236555e-01  1.2895968731866284e-01  1.2349568673764215e-01  1.1811966204384973e-01  1.1283014466150704e-01  1.0762573878844416e-01  1.0250505674448146e-01  9.7466694933541584e-02  9.2509304853384600e-02  8.7631572208270697e-02  8.2832136977355114e-02  7.8109702104450202e-02  7.3463052267268902e-02  6.8890797741746654e-02  6.4391745298010006e-02  5.9964654992491782e-02  5.5608232015384125e-02  5.1321311909899567e-02  4.7102766662445887e-02  4.2951254216449360e-02  3.8865694342606408e-02  3.4844807714593029e-02  3.0887495177312593e-02  2.6992716148610412e-02  2.3159206896914662e-02  1.9385795023221138e-02  1.5671434602059234e-02  1.2015000469785564e-02  8.4153081597812176e-03  4.8713647531825775e-03  1.3819480215294931e-03  -2.0539599421470984e-03  -5.4375285632999367e-03  -8.7698287838390530e-03  -1.2051540320030097e-02  -1.5284457989895294e-02  -1.8469215167333356e-02  -2.1606900798655876e-02  -2.4698801668285007e-02  -2.7745932450211046e-02  -3.0748731998278250e-02  -3.3709244436825353e-02  -3.6627958827659415e-02  -3.9505991335153826e-02  -4.2344471512215487e-02  -4.5144394090149045e-02  -4.7906802027982226e-02  -5.0632871533834140e-02  -5.3323543211805574e-02  -5.5979781724497059e-02  -5.8602538544078007e-02  -6.1193382879466011e-02  -6.3752710622839409e-02  -6.6281788507684569e-02  -6.8781287369761121e-02  -7.1253182274122612e-02  -7.3697960256659673e-02  -7.6115847872582562e-02  -7.8508578195086179e-02  -8.0877724152989661e-02  -8.3223013422846243e-02  -8.5546480137492872e-02  -8.7848889677434983e-02  -9.0130517561543028e-02  -9.2392946673964166e-02  -9.4637084205803079e-02  -9.6863858011877926e-02  -9.9075023291639988e-02  -1.0127065346288525e-01  -1.0345129897952143e-01  -1.0561753516112853e-01  -1.0777285451159890e-01  -1.0991637260763663e-01  -1.1204876471021090e-01  -1.1417192287006227e-01  -1.1628624622794567e-01  -1.1839270533244915e-01  -1.2049238854940911e-01  -1.2258720339197958e-01  -1.2467761713486485e-01  -1.2676386525985625e-01  -1.2884830607946854e-01  -1.3093183359293248e-01  -1.3301557900093661e-01  -1.3510089602207542e-01  -1.3718899747942859e-01  -1.3928150157230840e-01  -1.4138007474478806e-01  -1.4348658008947215e-01  -1.4560297306223322e-01  -1.4773069883346282e-01  -1.4987094256249744e-01  -1.5201154173691858e-01  -1.5438116020429249e-01  -1.5555463201141373e-01  -1.5913070033621754e-01  -1.5638162018362023e-01  -1.6138896403337311e-01  -1.5887419997834643e-01  -2.0435180328949937e-01  -1.8291801175026642e-01  -1.7634414410157018e-01  -1.7156326367722013e-01  -1.6833727107121405e-01  -1.6591761547922454e-01  -1.6410674304859066e-01  -1.6278180950773008e-01  -1.6198798764460701e-01  -1.6179603700239306e-01  -1.6220286395173880e-01  -1.6299319093883397e-01  -1.6336836452270254e-01  -1.6316510640946125e-01  -1.6249829516455305e-01  -1.6145870167290849e-01  -1.6009047427134235e-01  -1.5837930816407300e-01  -1.5631298454628628e-01  -1.5392085794718188e-01  -1.5122059225612580e-01  -1.4821657292996207e-01  -1.4492276222543998e-01  -1.4135045252601722e-01  -1.3751186147044631e-01  -1.3342724156594821e-01  -1.2910942426347602e-01  -1.2457067691559837e-01  -1.1982899073627636e-01  -1.1490275423711173e-01  -1.0980210120017768e-01  -1.0455634199580831e-01  -9.9182646383714657e-02  -9.3696467016781915e-02  -8.8127247982882004e-02  -8.2492803553898444e-02  -7.6820824949981867e-02  -7.1133300717428433e-02  -6.5451427094782438e-02  -5.9805782684799927e-02  -5.4216320382314200e-02  -4.8708057370313813e-02  -3.7918961374454427e-02  -3.2646044118300299e-02  -2.7491269373374809e-02  -2.2488109858051230e-02  -1.7663188036569157e-02  -1.3018666306852030e-02  -8.5818651639749579e-03  -4.3580975147022444e-03  -3.9565589191475128e-04  3.3278894513340870e-03  6.8112152138134190e-03  1.0032654503174665e-02  1.2993573556799688e-02  1.5699722710525520e-02  1.8154006989937535e-02  2.0360571779459262e-02  2.2333623477488105e-02  2.4072755172389288e-02  2.5591821826552886e-02  2.6919987489644630e-02  2.8045552674271973e-02  2.8997940536776054e-02  2.9790243378895027e-02  3.0430348253945340e-02  3.0939223624863791e-02  3.1321441867683396e-02  3.1607779813742187e-02  3.1788967363628032e-02  3.1886047057012798e-02  3.1903934877776909e-02  3.1850716176442168e-02  3.1736030015492689e-02  3.1569376242821287e-02  3.1355059763857898e-02  3.1094043699774525e-02  3.0793788866995551e-02  3.0455209115957491e-02  3.0081218705875313e-02  2.9673117085767083e-02  2.9231499047112201e-02  2.8756887701487641e-02  2.8249361003412098e-02  2.7707814895201001e-02  2.7132638940024489e-02  2.6521489504415709e-02  2.5873110022517038e-02  2.5188662276654200e-02  2.4463407153037443e-02  2.3695573391362204e-02  2.2889294751253293e-02  2.2035448446979525e-02  2.1140762668317489e-02  2.0195208735456910e-02  1.9207217938152749e-02  1.8169307198320807e-02  1.7077753965623815e-02  1.5942749963920817e-02  1.4750521098266762e-02  1.3512018596825503e-02  1.2221354517170501e-02  1.0877454814563642e-02  9.4804316096451062e-03  8.0323150891723899e-03  6.5361468148490299e-03  4.9823866154990850e-03  3.3891613696034615e-03  1.7398029221772874e-03  0.0000000000000000e+00  0.0000000000000000e+00  0.0000000000000000e+00  0.0000000000000000e+00  0.0000000000000000e+00  0.0000000000000000e+00  0.0000000000000000e+00  0.0000000000000000e+00  0.0000000000000000e+00  1.8933779292948753e-03  3.6566034698193505e-03  5.3913057804053912e-03  7.0724233024112007e-03  8.7036686457510649e-03  1.0283676661382770e-02  1.1811442819537114e-02  1.3285204043939219e-02  1.4702071555555862e-02  1.6059778446534535e-02  1.7354295705930785e-02  1.8583094249850142e-02  1.9741107635211658e-02  2.0825320408965984e-02  2.1830940706918437e-02  2.2751403428868541e-02  2.3586388065412692e-02  2.4324821915984222e-02  2.4962149008214970e-02  2.5492362564054634e-02  2.5908732962489332e-02  2.6204837753604444e-02  2.6375115370212237e-02  2.6409071835409543e-02  2.6305433588622328e-02  2.6052511025555922e-02  2.5648531432952596e-02  2.5082319421275957e-02  2.4348968945809561e-02  2.3446056088298840e-02  2.2362993188308193e-02  2.1094488671043240e-02  1.9655589558623735e-02  1.8031727082152536e-02  1.6197434280977471e-02  1.4192347840661496e-02  1.1993638193082846e-02  9.6014600004581396e-03  7.0172890043423714e-03  4.2487313793302334e-03  1.2861366666162416e-03  -1.8562940976237161e-03  -5.1876660486722031e-03  -8.6975261416414734e-03  -1.2397379415499916e-02  -1.6270935850931756e-02  -2.0320119239129908e-02  -2.4535333746793099e-02  -2.8919974375416286e-02  -3.3459751473999953e-02  -3.8151486430214446e-02  -4.2983362438530855e-02  -4.7941206902432795e-02  -5.3016074351898347e-02  -5.8192024634254456e-02  -6.3444457135154786e-02  -6.8712126873824442e-02  -7.4044952976516476e-02  -7.9354729976971433e-02  -8.4581058884250604e-02  -8.9729482374704336e-02  -9.4727482365949106e-02  -9.9556738219432103e-02  -1.0411088174155067e-01  -1.0838396502120196e-01  -1.1226712584475187e-01  -1.1574896963496850e-01  -1.1871919056582320e-01  -1.2118310568657290e-01  -1.2300868855224331e-01  -1.2421247470503716e-01  -1.2472255657276363e-01  -1.2441156838215435e-01  -1.2345311166911878e-01  -1.2171223584432962e-01  -1.1919859902115046e-01  -1.1603137250599285e-01  -1.1223494494884627e-01  -1.0793590781035865e-01  -1.0320313591164836e-01  -9.8037729206883445e-02  -9.2575611252211393e-02  -8.6855720931524161e-02  -8.0969946981612612e-02  -7.4922861355848816e-02  -6.8742294262151130e-02  -6.2480118412093361e-02  -5.6149112653863471e-02  -4.9760409974428634e-02  -4.3337238184755877e-02  -3.6884636163537043e-02  -3.0420653140350820e-02  -2.3948129496405061e-02  -1.7469634778577887e-02  -1.0996379655731772e-02  -4.5295593061027133e-03  1.9296131376670483e-03  8.3777460250586359e-03  1.4811806021579678e-02  2.1230678744921034e-02  2.7633848677312015e-02  3.4019830113886949e-02  4.0388435048779196e-02  4.6738109564971625e-02  5.3069192983688625e-02  5.9380988344165359e-02  6.5673231985923217e-02  7.1945834889041729e-02  7.8198500067036492e-02  8.4431182602466071e-02  9.0643850410895566e-02  9.6836412751252945e-02  1.0300884710031565e-01  1.0916115600907256e-01  1.1529335304078001e-01  1.2140542036355491e-01  1.2749742842288739e-01  1.3356939986489924e-01  1.3962136534676509e-01  1.4565337931167427e-01  1.5166547839626743e-01  1.5765768792373633e-01  1.5765740264918210e-01  1.5765670632412529e-01  1.5765561353452381e-01  1.5765428629618455e-01  1.5765295768921819e-01  1.5765186261603306e-01  1.5765116164938606e-01  1.5765087739508990e-01  -1.5475648260719513e-01  -1.8742011001872916e-01  -1.5809261049004519e-01  -1.4457226676604037e-01  -1.3415631394871841e-01  -1.2370703991185222e-01  -1.1328493386319663e-01  -1.0253214104878039e-01  -9.1330679101430917e-02  -8.2293378910576920e-02  -7.2319671992570764e-02  -6.2490000240857782e-02  -5.2000313912234343e-02  -4.0933434797263614e-02  -2.9250004756145306e-02  -1.4299554025106437e-01  -1.2671556822901858e-01  -1.0731376826938505e-01  -8.5245273983376807e-02  -6.2890655453672520e-02  -4.0631559739361785e-02  -1.7056620369662742e-01  -1.2304087335382141e-01  -2.0457458442446435e-02  -3.3184253663425256e-03  1.1100841455784076e-02  -1.6781954805893268e-01  2.1291602368156224e-02  -1.6921029974584861e-02  2.7086931279264558e-02  -3.5935431508742118e-03  3.0454037734194965e-02  -1.1345078004401130e-01  -9.6512280958520311e-02  3.1721596693493385e-02  -7.6264145905598615e-02  1.0215496664239440e-02  -5.0071065184212969e-02  3.1558839124854049e-02  2.5074567907209550e-02  -1.6029246680548095e-01  3.0549920728147748e-02  -2.6489517980568221e-02  -1.2347469615230147e-01  4.0476365741179895e-02  2.8941280486331124e-02  -3.4583430255706641e-03  5.7973383672760247e-02  5.5021672626480809e-03  2.6762088969557288e-02  1.3199347441117445e-02  7.5264014010755595e-02  -1.1732783289640077e-01  2.4091722074737230e-02  1.8836734858781328e-02  -1.0546341427676761e-01  2.2916827894233903e-02  2.0648341800441648e-02  -8.9713304806762234e-02  9.5463882259186505e-02  1.0948086253009456e-01  -1.4218565587507483e-02  1.7593566088399102e-02  1.3961441483790081e-02  2.5297599898923852e-02  -7.2040146791769441e-02  2.6291646179484998e-02  -1.5091925849818807e-01  -4.6991615118503735e-02  2.5601769867830346e-02  1.2693256624616381e-01  -2.7223084825874006e-02  1.0151501865184993e-02  2.3100730636162227e-02  -7.6423876637305085e-03  1.8188311716454447e-02  2.0214292056956379e-02  4.9904249622410891e-02  1.6647514155864487e-02  6.8865810095298838e-02  8.7643503628469996e-02  1.2503045875660937e-02  1.1924371733871589e-01  1.5822941092794494e-03  1.5207429734655603e-01  -1.6298290853012634e-01  7.9802266190136997e-03  5.6396800302710758e-03  1.3704637629800612e-01  -1.7436194406568153e-01  -1.6233986534321604e-01  -1.1935425600874240e-01  -5.9222751011384439e-02  4.6596810712734851e-03  3.0494581694473149e-02  1.3738678739606922e-01  -4.0680524340843432e-02  -6.5357803888770591e-02  -8.6528625875724172e-02  -1.0559201053213890e-01  8.5526338247775044e-02  2.6081651928869548e-02  6.6353491426425618e-02  9.9885181408924509e-02  2.4556298846239014e-02  2.2454952761212794e-02  4.8652103215718376e-02  2.5424496473987649e-02  2.7934113623223865e-02  3.3115395169306706e-02  2.9815020281886831e-02  3.1143444484690690e-02  3.1769228159978832e-02  3.1331700443116305e-02  -3.0427099331177168e-02  1.7526924549288222e-02  2.9084248920122752e-02  2.4525398297405687e-02  3.1435192716830237e-03  1.6806668084426817e-02  4.6941495732428446e-03  -1.1033406001430227e-02  1.3211890825921375e-03  -1.0774536852468297e-02  -2.2705850389582304e-02  1.5241423728089040e-01  -3.4859198864271225e-02  -4.6536927062219624e-02  -5.7306507443811536e-02  -6.7644128681036142e-02  -7.7386919616449709e-02  -8.6623387564014873e-02  -1.4933805560405114e-01  -9.8012814103619145e-02  -1.0889666246845121e-01  -1.1951355085219285e-01  -1.3540651690377983e-01  -1.3004695476393044e-01  -9.6767142416939622e-02  -1.1691207520344413e-01  -7.5035101128486728e-02  -5.1766676538010148e-02  -1.4044121907276100e-01  -1.5930634225605256e-01  1.6599445271303582e-03  1.5191737990443493e-01  4.4515823562994239e-03  -1.6276559450149755e-01  1.5266623048885317e-01  1.3466928993972607e-03  1.4856169656213356e-01  -1.6273477232214989e-01  -1.6239756261851124e-01  -1.6194066463346468e-01  -1.6243790990128087e-01  -1.6196322708352948e-01  -1.6278744441848630e-01  -1.6213216297211733e-01  -1.6324003883271926e-01  -1.6241451381164820e-01  -1.6356061145026110e-01  -1.6261648615563390e-01  -1.6348696952470776e-01  -1.6234824759839522e-01  -1.6285494773323156e-01  -1.6157981103242372e-01  -1.6176740646112669e-01  -1.6031897870462142e-01  -1.6028434037603440e-01  -1.5867079857548083e-01  -1.5824251879676873e-01  -1.5633404009513435e-01  -1.5990354813613614e-01  -1.5686005012537660e-01  -1.5414276468232307e-01  -1.5718473285107695e-01  -1.5910738910546238e-01  -1.5443706053279291e-01  -1.5158464939046834e-01  -1.5179942188801532e-01  -1.4859064351343312e-01  -1.4868686960726599e-01  -1.4516575169650389e-01  -1.4517889572799617e-01  -1.4158995351832560e-01  -1.4127232589669195e-01  -1.3696644057554702e-01  -1.3675400921396541e-01  -1.3262601865031878e-01  -1.3199783335917278e-01  -1.2771223926346159e-01  -1.2685055152870836e-01  -1.2247802610690968e-01  -1.2139693621811061e-01  -1.1698311200597954e-01  -1.1564461105551341e-01  -1.1125665644952400e-01  -1.0962645483620186e-01  -1.0531255424239895e-01  -1.0340533511253398e-01  -9.9229269489618285e-02  -9.6992526918417823e-02  -9.3042268490720614e-02  -9.0364894327057979e-02  -1.5531109398785767e-01  -1.5703745717267437e-01  -8.6766312755324870e-02  -8.3675927927859411e-02  -8.0485190736768297e-02  -7.7406705914541324e-02  -7.4285095708454804e-02  -7.0870040649481006e-02  -6.8175536127044994e-02  -6.4446630315457706e-02  -1.5047744147878048e-01  -6.2269902779699113e-02  -5.8128151928705747e-02  -5.6251856894810992e-02  -5.1927761013817401e-02  -5.0665512491110259e-02  -4.6000201470561976e-02  -1.5244979607415368e-01  -1.5429154426132430e-01  -1.6398348490444001e-01  -4.5195252617615325e-02  -4.0255386204990480e-02  -3.9991952424843269e-02  -3.4780690147482911e-02  -3.5036609392469963e-02  -2.9609803264836268e-02  -1.6035582861263825e-01  -3.0348103133585169e-02  -2.4710206988172636e-02  -1.4089167994721116e-01  -2.5913400334608337e-02  -2.0131167288844325e-02  -2.1766693452214474e-02  -1.5866519678371847e-02  -1.7828789245490351e-02  -1.1908443032404228e-02  -1.6095083378616420e-01  -1.2760877470643561e-01  -1.4219797265631414e-02  -8.2596396921728790e-03  -1.4863971376152066e-01  -1.4974945426669969e-01  -1.4714824197229148e-01  -1.1191452118147693e-01  -1.0802323665563829e-02  -4.7619918194246628e-03  -7.7249834336259610e-03  -1.6156716592278411e-03  -4.8022707991996977e-03  1.1150575502102337e-03  -4.1162239205210539e-02  -2.1210154034224772e-03  -2.4220374569954347e-02  -6.0406131580287278e-02  -2.0943439535095472e-03  3.6201523490535805e-03  6.8156737244161212e-03  9.1754669459792274e-03  5.9633428197197426e-03  1.1307019346113261e-02  8.1718862866634566e-03  1.3298358866722084e-02  1.0167405155807382e-02  1.5037920221637739e-02  1.1995507720260904e-02  1.6639707513831939e-02  1.3714865812557275e-02  1.8050038841789760e-02  1.5207469954890725e-02  1.9338295424268848e-02  1.6696806882342458e-02  2.0616362741530801e-02  1.8027721723771564e-02  2.1669336099808100e-02  1.9281459898991264e-02  2.2586811451214790e-02  2.0287133659717561e-02  2.3422285185291509e-02  -8.0301310614587895e-02  -9.5045711191187141e-02  2.1314938369497622e-02  2.4130583484459105e-02  2.2291119564553454e-02  2.4803975935523543e-02  -1.4794562834187286e-01  -1.1351807813674011e-01  2.3162968828143959e-02  2.5364526186345195e-02  -1.3046720997379754e-01  -7.7828345913147884e-02  -1.4392611597434585e-01  -1.4459637578013099e-01  -1.5115808920436635e-01  -1.4487870876581790e-01  -1.5032565147360488e-01  -1.4442881176218117e-01  -1.5012889568050305e-01  -1.4342574510659231e-01  -1.4735636232644311e-01  -1.4142990991293267e-01  -1.4544179049805556e-01  -1.3905424771290512e-01  -1.4154513883568073e-01  -1.3604728134582036e-01  -1.3785992873187597e-01  -1.3287058681982153e-01  -1.3407279364290237e-01  -1.2944181501916235e-01  -1.3023887691558739e-01  -1.2593892409530696e-01  -1.2637496719625985e-01  -1.2234445352475865e-01  -1.2253000173961716e-01  -1.1872692574277201e-01  -1.1869753186559302e-01  -1.1513451510571157e-01  -1.1456058612207326e-01  -1.1126495408896958e-01  -1.1149030367861840e-01  -1.0787980887605395e-01  -1.0758353253411762e-01  -1.0427110467896833e-01  -1.0399257709926249e-01  -1.0070623680973970e-01  -1.0017479356140672e-01  -9.7082163605275565e-02  -1.3087625041845893e-01  -1.0764826894055930e-01  -1.2147949230163718e-01  -9.6489324803192236e-02  -9.3379861509809398e-02  -9.3741569899880584e-02  -9.0207526281435940e-02  -8.9637101584622278e-02  -8.6591797951996660e-02  -8.5849868360065973e-02  -8.2922389539819771e-02  -8.2078348128842765e-02  -7.9197603394391747e-02  -8.6428610455744403e-02  -1.5534105910141410e-01  -1.4684887104592845e-01  -7.8367986328341521e-02  -7.5415550722014418e-02  -7.6206570955881889e-02  -7.2428020770318347e-02  -7.1609597363450586e-02  -6.8667780504768489e-02  -6.7747560807943016e-02  -6.4883360594018127e-02  -1.3866818325650299e-01  -6.9225172258070497e-02  -6.3909070193015519e-02  -6.1113308426896405e-02  -1.3032129401092260e-01  -6.0184748762577615e-02  -5.7288372311969100e-02  -5.8491787055100393e-02  -5.4344391611665425e-02  -5.3354362582533614e-02  -5.0296704923141741e-02  -5.1247344166015750e-02  -4.7199727751368520e-02  -4.6267022995535902e-02  -4.3161430966481645e-02  -4.2222297448508667e-02  -3.9030399161829293e-02  -3.9995701121311074e-02  -3.5866605748941051e-02  -3.4873842771387803e-02  -3.1733763578711556e-02  -3.0781762447400687e-02  -2.7619427567508084e-02  -1.3944226961993067e-01  -1.0722697759419328e-01  -1.2213175813346419e-01  -2.6762937089798711e-02  -2.3537692054678663e-02  -2.4407075987709553e-02  -2.0171108226649956e-02  -1.9308406345244104e-02  -1.5941522282148592e-02  -2.1039491098398241e-02  2.3858318891065756e-02  2.5834271083229943e-02  2.4494595704445284e-02  2.6236583054930110e-02  2.5066305999278279e-02  2.6566090606158513e-02  -8.8928768606297823e-02  -5.0084005999057039e-02  -1.6380642993025146e-01  -1.5048234283755660e-02  -1.1747843525670564e-02  -9.9470954021797786e-02  2.1044090873392207e-02  2.5507152498221497e-02  1.1841935466047100e-02  2.5547217803541553e-02  2.6814364330739145e-02  2.7921941755913178e-02  2.7949455417331071e-02  2.6987598310330863e-02  2.7924271611067798e-02  2.7094231836943618e-02  2.7839869254230164e-02  2.7118058683682417e-02  2.7687045190004662e-02  2.7070173589047401e-02  2.7476607786095685e-02  2.6938309616817483e-02  2.7194278869905851e-02  2.6729990333105493e-02  2.6852666896788894e-02  2.6449760366474531e-02  2.6449628484630765e-02  2.6100666589117118e-02  2.5988028785901222e-02  2.5672763706577936e-02  2.5452147288602726e-02  2.5162778267281229e-02  2.4865343796173903e-02  2.4575415524238184e-02  2.4191602165231595e-02  2.3928869237751761e-02  2.3478145270926259e-02  2.3189919426884881e-02  2.2679498564861608e-02  2.2391444409481102e-02  2.1832914171815643e-02  2.7464263849400618e-02  -3.6899305679470903e-02  -7.0725695014969156e-02  -1.0733272516812909e-02  -7.4451337366916743e-03  -8.4509468423676955e-03  -3.9963556620471246e-03  -5.0466596185206446e-03  -4.8820170516282598e-04  4.4122140182971679e-04  3.9694423672828640e-03  5.0180143482863896e-03  8.5190241426338804e-03  7.5678634545408305e-03  1.2105816668255841e-02  1.2914386175874705e-02  1.6608304547589787e-02  1.74024184458626