<?xml version="1.0"?>
<VTKFile type="UnstructuredGrid"  version="0.1"  >
<UnstructuredGrid>
<Piece  NumberOfPoints="2945" NumberOfCells="5525">
<Points>
<DataArray  type="Float64"  NumberOfComponents="3"  format="ascii">0 0.1 0  0.95 0.1 0  1 0.1 0  1 0 0  1.5 0 0  3 0 0  3 0.3 0  0 0.3 0  0.0197424558707114 0.1 0  0.03915669042224804 0.1 0  0.05824816022699029 0.1 0  0.07702223050332387 0.1 0  0.09548417327144595 0.1 0  0.1136391897583987 0.1 0  0.1314923700144587 0.1 0  0.1490487330862866 0.1 0  0.1663132263225292 0.1 0  0.1832906857273058 0.1 0  0.1999858946008978 0.1 0  0.216403545770297 0.1 0  0.2325482404045023 0.1 0  0.2484245348165176 0.1 0  0.2640368740372501 0.1 0  0.2793896589642241 0.1 0  0.2944872056237027 0.1 0  0.3093337469555254 0.1 0  0.3239334613687816 0.1 0  0.3382904528528069 0.1 0  0.3524087553122972 0.1 0  0.3662923366391824 0.1 0  0.3799451014768399 0.1 0  0.393370886920506 0.1 0  0.4065734648871676 0.1 0  0.419556546320114 0.1 0  0.4323237821343415 0.1 0  0.4448787573056132 0.1 0  0.4572250047274954 0.1 0  0.4693659926332938 0.1 0  0.4813051343276231 0.1 0  0.4930457849308193 0.1 0  0.5045912455271677 0.1 0  0.5159447600209797 0.1 0  0.5271095174127136 0.1 0  0.5380886618453393 0.1 0  0.5488852725463512 0.1 0  0.5595023868312478 0.1 0  0.5699429904313016 0.1 0  0.5802100167387366 0.1 0  0.5903063508274641 0.1 0  0.6002348329443006 0.1 0  0.6099982499579832 0.1 0  0.6195993483501782 0.1 0  0.6290408246013842 0.1 0  0.6383253354321616 0.1 0  0.6474554910757137 0.1 0  0.6564338522440513 0.1 0  0.6652629482939147 0.1 0  0.6739452579188948 0.1 0  0.6824832240165607 0.1 0  0.6908792415022103 0.1 0  0.6991356755989045 0.1 0  0.7072548438546967 0.1 0  0.7152390281534421 0.1 0  0.7230904746196039 0.1 0  0.7308113906759266 0.1 0  0.7384039435269326 0.1 0  0.7458702676581656 0.1 0  0.7532124631720397 0.1 0  0.7604325921167397 0.1 0  0.7675326856666862 0.1 0  0.7745147374421916 0.1 0  0.7813807123989068 0.1 0  0.7881325374362798 0.1 0  0.7947721131625659 0.1 0  0.8013013031866276 0.1 0  0.8077219449067021 0.1 0  0.8140358419942376 0.1 0  0.8202447685401882 0.1 0  0.8263504700910924 0.1 0  0.8323546643163114 0.1 0  0.8382590362474568 0.1 0  0.8440652473522128 0.1 0  0.8497749272799842 0.1 0  0.8553896837646281 0.1 0  0.8609110933285474 0.1 0  0.866340708855119 0.1 0  0.8716800550492284 0.1 0  0.8769306339052932 0.1 0  0.8820939206038667 0.1 0  0.8871713655604893 0.1 0  0.8921643975475726 0.1 0  0.8970744196575535 0.1 0  0.9019028106970642 0.1 0  0.9066509291259979 0.1 0  0.9113201098984042 0.1 0  0.9159116634553873 0.1 0  0.9204268818729691 0.1 0  0.9248670319440222 0.1 0  0.9292333656649013 0.1 0  0.9335271075812669 0.1 0  0.9377494640511216 0.1 0  0.941901623463222 0.1 0  0.9459847526686701 0.1 0  0.9538461538461205 0.1 0  0.9576923076922409 0.1 0  0.9615384615384381 0.1 0  0.9653846153846337 0.1 0  0.9692307692307542 0.1 0  0.9730769230768747 0.1 0  0.9769230769229952 0.1 0  0.9807692307691157 0.1 0  0.9846153846152361 0.1 0  0.9884615384614317 0.1 0  0.9923076923076356 0.1 0  0.9961538461538395 0.1 0  1 0.09591793123533533 0  1 0.09133596463859224 0  1 0.08619288104391448 0  1 0.08041996484521211 0  1 0.07394008421771697 0  1 0.06666666567302955 0  1 0.05850252932209174 0  1 0.04933859630113544 0  1 0.03905242821848202 0  1 0.02750659386753798 0  1 0.01454683679239736 0  1.015625 0 0  1.03125 0 0  1.046875 0 0  1.0625 0 0  1.078125 0 0  1.09375 0 0  1.109375 0 0  1.125 0 0  1.140625 0 0  1.15625 0 0  1.171875 0 0  1.1875 0 0  1.203125 0 0  1.21875 0 0  1.234375 0 0  1.25 0 0  1.265625 0 0  1.28125 0 0  1.296875 0 0  1.3125 0 0  1.328125 0 0  1.34375 0 0  1.359375 0 0  1.375 0 0  1.390625 0 0  1.40625 0 0  1.421875 0 0  1.4375 0 0  1.453125 0 0  1.46875 0 0  1.484375 0 0  1.515920751924515 0 0  1.531989369316721 0 0  1.54820720925872 0 0  1.564575665560501 0 0  1.581096138674279 0 0  1.597770029901263 0 0  1.614598783332311 0 0  1.631583831055205 0 0  1.64872661129721 0 0  1.666028606716533 0 0  1.683491276608443 0 0  1.701116134125304 0 0  1.718904673324128 0 0  1.736858414799339 0 0  1.754978895814663 0 0  1.773267661782904 0 0  1.791726281103402 0 0  1.810356325314689 0 0  1.8291593848892 0 0  1.848137076690385 0 0  1.867291007717254 0 0  1.886622833871288 0 0  1.90613418642363 0 0  1.925826753299799 0 0  1.945702199101513 0 0  1.96576223584749 0 0  1.986008569283268 0 0  2.006442931928877 0 0  2.02706707547783 0 0  2.047882750887917 0 0  2.06889175187935 0 0  2.090095860038271 0 0  2.111496891648636 0 0  2.133096679109554 0 0  2.154897066851056 0 0  2.176899916687499 0 0  2.199107102752146 0 0  2.22152053937028 0 0  2.244142122958061 0 0  2.266973806444078 0 0  2.290017523268154 0 0  2.313275249499252 0 0  2.336748971745516 0 0  2.360440702338606 0 0  2.384352453384031 0 0  2.408486280477412 0 0  2.432844240041185 0 0  2.457428414757088 0 0  2.482240901796653 0 0  2.507283830121838 0 0  2.532559332080812 0 0  2.558069568787417 0 0  2.583816724966441 0 0  2.60980299606584 0 0  2.636030600971886 0 0  2.662501790984011 0 0  2.689218818279327 0 0  2.716183964547616 0 0  2.743399548861297 0 0  2.77086788244719 0 0  2.798591312896326 0 0  2.826572223178268 0 0  2.854812990138617 0 0  2.883316031690714 0 0  2.912083780657189 0 0  2.941118704633482 0 0  2.970423276998917 0 0  3 0.02999999999994495 0  3 0.05999999999987042 0  3 0.089999999999783 0  3 0.119999999999701 0  3 0.149999999999619 0  3 0.179999999999692 0  3 0.2099999999997737 0  3 0.2399999999998511 0  3 0.2699999999999185 0  2.970138294777171 0.3 0  2.940375666438236 0.3 0  2.910711782853056 0.3 0  2.881146331305122 0.3 0  2.851678975030285 0.3 0  2.822309388626621 0.3 0  2.793037250095074 0.3 0  2.76386223529133 0.3 0  2.734784017903872 0.3 0  2.705802289276642 0.3 0  2.676916713794697 0.3 0  2.648126987654635 0.3 0  2.619432780406184 0.3 0  2.590833779385199 0.3 0  2.562329669847737 0.3 0  2.533920134950189 0.3 0  2.505604855727852 0.3 0  2.477383539822502 0.3 0  2.449255847639465 0.3 0  2.421221492569094 0.3 0  2.393280152486815 0.3 0  2.36543151914496 0.3 0  2.337675285481809 0.3 0  2.310011142385583 0.3 0  2.282438797441587 0.3 0  2.254957931061538 0.3 0  2.227568248063605 0.3 0  2.200269436651085 0.3 0  2.173061204949961 0.3 0  2.145943251515011 0.3 0  2.118915272469994 0.3 0  2.091976978084957 0.3 0  2.065128060700849 0.3 0  2.038368218849433 0.3 0  2.01169717777258 0.3 0  1.985114624111908 0.3 0  1.958620267850966 0.3 0  1.93221382054972 0.3 0  1.905894991850698 0.3 0  1.879663489459713 0.3 0  1.853519019126419 0.3 0  1.827461291053897 0.3 0  1.801490031354372 0.3 0  1.775604937580312 0.3 0  1.74980572560258 0.3 0  1.724092118631866 0.3 0  1.698463829173586 0.3 0  1.672920575782554 0.3 0  1.647462076974085 0.3 0  1.622088043536933 0.3 0  1.5967981978949 0.3 0  1.571592267767068 0.3 0  1.546469970305736 0.3 0  1.521431023814044 0.3 0  1.496475156230927 0.3 0  1.471602093687753 0.3 0  1.446811560490646 0.3 0  1.422103279101731 0.3 0  1.397476971708191 0.3 0  1.37293238939876 0.3 0  1.348469231419202 0.3 0  1.324087248732772 0.3 0  1.299786165921677 0.3 0  1.275565710847046 0.3 0  1.251425617644257 0.3 0  1.227365618676339 0.3 0  1.203385446174014 0.3 0  1.179484853067473 0.3 0  1.155663548773374 0.3 0  1.131921292279077 0.3 0  1.108257802159295 0.3 0  1.084672829009693 0.3 0  1.061166115303374 0.3 0  1.037737392995421 0.3 0  1.01438640299116 0.3 0  0.991112899770314 0.3 0  0.9679166155523955 0.3 0  0.944797284182564 0.3 0  0.921754678526042 0.3 0  0.8987885143602501 0.3 0  0.8758985548820624 0.3 0  0.8530845484099929 0.3 0  0.8303462351786988 0.3 0  0.8076833651172373 0.3 0  0.7850956864865304 0.3 0  0.7625829601354557 0.3 0  0.7401449314598274 0.3 0  0.717781337993959 0.3 0  0.6954919649675473 0.3 0  0.6732765357561226 0.3 0  0.6511348120768439 0.3 0  0.6290665642016573 0.3 0  0.6070715355430467 0.3 0  0.5851494825775325 0.3 0  0.5633001690203812 0.3 0  0.5415233562273221 0.3 0  0.5198187909431873 0.3 0  0.4981862401387795 0.3 0  0.4766254686134248 0.3 0  0.4551362360485234 0.3 0  0.4337182975262159 0.3 0  0.4123714223228037 0.3 0  0.3910953802377493 0.3 0  0.3698899313205595 0.3 0  0.3487548463710963 0.3 0  0.3276898864081783 0.3 0  0.3066948129116018 0.3 0  0.2857694003037476 0.3 0  0.2649134227095047 0.3 0  0.2441266417321288 0.3 0  0.2234088223399122 0.3 0  0.2027597568977288 0.3 0  0.1821792020676698 0.3 0  0.1616669305402443 0.3 0  0.1412227158799362 0.3 0  0.12084633013886 0.3 0  0.1005375673448281 0.3 0  0.08029618164595353 0.3 0  0.06012194778526769 0.3 0  0.04001466495039718 0.3 0  0.01997408913631205 0.3 0  0 0.2800000000000553 0  0 0.2600000000001105 0  0 0.2400000000001658 0  0 0.2200000000002211 0  0 0.2000000000002764 0  0 0.1800000000002244 0  0 0.1600000000001691 0  0 0.140000000000115 0  0 0.1200000000000564 0  1.133778471000506 0.01219539743990768 0  1.003741919047894 0.09354664821474232 0  0.9559421147150347 0.1035858189992458 0  0.9313792160389045 0.1037365237938103 0  0.9788461538460573 0.1033060829993555 0  0.9090102438250753 0.1037269304984056 0  0.8846304212778655 0.1043349840723655 0  0.8581503885465881 0.104741932962923 0  0.8286416220145676 0.1052762843984476 0  0.7982741772533339 0.1053575624517407 0  0.7708789559342691 0.1060290465840416 0  0.741870349714261 0.1078220590984258 0  0.7112469360040695 0.10685702926368 0  0.6783901541417233 0.1079959711853378 0  0.642884733623195 0.1075561996086514 0  0.6056235042367955 0.1085956039602543 0  0.5647007593786924 0.1083187281660325 0  1.1953125 0.01353164693413185 0  1.258148737344733 0.01268350115427042 0  1.320087046516829 0.01426312402966312 0  1.383495130751951 0.01432665475473204 0  1.4453125 0.01315663539200989 0  1.50886768312388 0.01395488397722681 0  0.9942307692307371 0.103330866937657 0  1.119309781943483 0.2802014914557878 0  1.572831235329714 0.01707210522554785 0  1.637611634353954 0.01209340368483431 0  1.709661292005932 0.0146870244871893 0  1.006561890631532 0.07068055446055937 0  1.784793444007901 0.01499371444634687 0  1.855459587353174 0.0
[...]
<PointData  Scalars="pressure"> 
<DataArray  type="Float64"  Name="pressure"  format="ascii">6.8093859457400804e-02  -2.4277726375545988e-01  -2.8179363072524671e-01  -2.2602285034204886e-01  -9.8190002374584112e-02  0.0000000000000000e+00  0.0000000000000000e+00  6.8104577011258133e-02  6.2171133506148571e-02  5.6346760359941822e-02  5.0619071212761130e-02  4.4986441975037192e-02  3.9447254940237285e-02  3.3999956095528153e-02  2.8642984941733479e-02  2.3374802272111743e-02  1.8193938162800811e-02  1.3098849080801247e-02  8.0880864113341815e-03  3.1602365415593541e-03  -1.6861664949031567e-03  -6.4525055546089333e-03  -1.1140204664862948e-02  -1.5750611840305108e-02  -2.0285136882679213e-02  -2.4745069399916785e-02  -2.9131800371662641e-02  -3.3446588477329120e-02  -3.7690849182374066e-02  -4.1865797778468342e-02  -4.5972585856471460e-02  -5.0012774937546647e-02  -5.3987463412318054e-02  -5.7897981635016818e-02  -6.1745471974730612e-02  -6.5531301053948901e-02  -6.9256633998908190e-02  -7.2922755867186481e-02  -7.6530833162375370e-02  -8.0081953409158468e-02  -8.3577690845157565e-02  -8.7019043710507615e-02  -9.0407176959840588e-02  -9.3743336324266957e-02  -9.7028828171662057e-02  -1.0026470620205077e-01  -1.0345227665831395e-01  -1.0659265512923831e-01  -1.0968718071476388e-01  -1.1273696134684771e-01  -1.1574319127695616e-01  -1.1870703457396387e-01  -1.2162980046049986e-01  -1.2451254553548767e-01  -1.2735665858803757e-01  -1.3016317065511973e-01  -1.3293333441049704e-01  -1.3566853874167567e-01  -1.3836969729089765e-01  -1.4103815478695919e-01  -1.4367547185242843e-01  -1.4628186129304491e-01  -1.4885936918946333e-01  -1.5140907655097161e-01  -1.5393188670258323e-01  -1.5642997204197628e-01  -1.5890342952814940e-01  -1.6135308171622320e-01  -1.6378140237428829e-01  -1.6618921968541917e-01  -1.6857817972617986e-01  -1.7094846847055187e-01  -1.7330086655482643e-01  -1.7563868053661202e-01  -1.7796178234155538e-01  -1.8027182747793050e-01  -1.8257002350282259e-01  -1.8485761303944093e-01  -1.8713573092124863e-01  -1.8940620567393096e-01  -1.9166977297953691e-01  -1.9392769819163300e-01  -1.9618237929742458e-01  -1.9843506153074669e-01  -2.0068645069009336e-01  -2.0293897807854694e-01  -2.0519463136938706e-01  -2.0745435573896551e-01  -2.0971957280776102e-01  -2.1199572258302565e-01  -2.1428194645579859e-01  -2.1658220029227779e-01  -2.1889707935033734e-01  -2.2123911447781605e-01  -2.2359443009351812e-01  -2.2591628011508208e-01  -2.2896733320026100e-01  -2.2761008618104572e-01  -2.4860003895370936e-01  -2.1657222444361426e-01  -2.4186902451839784e-01  -2.3981955177483444e-01  -2.4389017038024441e-01  -2.4963751288437425e-01  -2.5553196109193288e-01  -2.5916378069079121e-01  -2.6146976895042445e-01  -2.6249569059447231e-01  -2.6250954296825718e-01  -2.6169896152662209e-01  -2.6030341143118657e-01  -2.5850053123853378e-01  -2.5639971229043390e-01  -2.5560346521247496e-01  -2.4522201035417091e-01  -2.6612308478213315e-01  -2.4767134662758231e-01  -2.4110294591344927e-01  -2.3634707449770054e-01  -2.3306646281338481e-01  -2.3048091556216144e-01  -2.2836208252017898e-01  -2.2673760327702427e-01  -2.2566029766316190e-01  -2.2522723109581849e-01  -2.2558170336159633e-01  -2.2658620340575206e-01  -2.2686306680305413e-01  -2.2629659652180079e-01  -2.2497483100119414e-01  -2.2293956362982545e-01  -2.2022215247651991e-01  -2.1682293293869570e-01  -2.1275122290752618e-01  -2.0813749443328861e-01  -2.0310757562090917e-01  -1.9776750888429184e-01  -1.9224974388957913e-01  -1.8668054729688252e-01  -1.8116203621478816e-01  -1.7578905159888550e-01  -1.7061825886444584e-01  -1.6569428700311031e-01  -1.6103110600925130e-01  -1.5661591406132785e-01  -1.5243200629542031e-01  -1.4842026380583542e-01  -1.4450293465610300e-01  -1.4063670021998764e-01  -1.3673094778699585e-01  -1.3273582138458345e-01  -1.2853421083856884e-01  -1.2414016777500558e-01  -1.1947359943138273e-01  -1.1453779087910880e-01  -1.0932813628527703e-01  -1.0386519981945887e-01  -9.2240547968896719e-02  -8.6142271313149679e-02  -7.9953882189797126e-02  -7.3782362967110049e-02  -6.7664758923288340e-02  -6.1727102360362912e-02  -5.6000510303905029e-02  -5.0581120711247388e-02  -4.5509343182972881e-02  -4.0801784253649678e-02  -3.6478737063508911e-02  -3.2546690250212694e-02  -2.8997669563489616e-02  -2.5810972947835187e-02  -2.2958703003621385e-02  -2.0409146986478152e-02  -1.8127521907400791e-02  -1.6094330675691569e-02  -1.4264075710091114e-02  -1.2612481914546994e-02  -1.1119800193062303e-02  -9.7601536776988976e-03  -8.5183025331144625e-03  -7.3819146635767940e-03  -6.3345215381065889e-03  -5.3653468709099032e-03  -4.4762940862223587e-03  -3.6493210278162286e-03  -2.8830414870267239e-03  -2.1749789418522535e-03  -1.5126342836841733e-03  -8.9420586758525680e-04  -3.1505586878436244e-04  2.2663741558422748e-04  7.3757222490622356e-04  1.2183173073965113e-03  1.6727781320033516e-03  2.0997316875608044e-03  2.5027841237405747e-03  2.8813885605029773e-03  3.2353845779856316e-03  3.5641888826758138e-03  3.8681921649914488e-03  4.1459561669128179e-03  4.3967581378554620e-03  4.6166953484526943e-03  4.8079073281452871e-03  4.9705691316959174e-03  5.0965172422653086e-03  5.1827811710550052e-03  5.2545075501944788e-03  5.2596587880328425e-03  5.2579743408566913e-03  5.1933744363923950e-03  5.0885630820190573e-03  4.9663838686764047e-03  4.7709627122969854e-03  4.5611951258000411e-03  4.2964435096813514e-03  3.9874832791609192e-03  3.6294078604164940e-03  3.2493528063092911e-03  2.8153993547979221e-03  2.3480309822533152e-03  1.8277725143569087e-03  1.2582463311919796e-03  6.7375277552313574e-04  0.0000000000000000e+00  0.0000000000000000e+00  0.0000000000000000e+00  0.0000000000000000e+00  0.0000000000000000e+00  0.0000000000000000e+00  0.0000000000000000e+00  0.0000000000000000e+00  0.0000000000000000e+00  8.0375951190092348e-04  1.5225855383297084e-03  2.1739025852252417e-03  2.7933710996188208e-03  3.3719701003829946e-03  3.9053116219573271e-03  4.3906140029646955e-03  4.8263947224198751e-03  5.2113419296302543e-03  5.5428811421677510e-03  5.8172041258371205e-03  6.0315313097499034e-03  6.1820493672189664e-03  6.2648284623094425e-03  6.2767212680297658e-03  6.2083632469749602e-03  6.0624161699512355e-03  5.8252281337210976e-03  5.4959216675978676e-03  5.0655950972602233e-03  4.5276998698279168e-03  3.8760346663886626e-03  3.1049379696594095e-03  2.2067817797821569e-03  1.1711071106346735e-03  -1.9030362930370857e-06  -1.3232443099275273e-03  -2.7984641994186618e-03  -4.4315628279206088e-03  -6.2296035315696149e-03  -8.2007764030041924e-03  -1.0347186680412500e-02  -1.2682386581230481e-02  -1.5175879604822076e-02  -1.7900240417301802e-02  -2.0804176668752530e-02  -2.3921778910307910e-02  -2.7257465734055082e-02  -3.0817122701424643e-02  -3.4630192156584465e-02  -3.8654667875549484e-02  -4.2927206302057395e-02  -4.7410454368953033e-02  -5.2066742221425252e-02  -5.6861205242645603e-02  -6.1719189944366447e-02  -6.6586320939220539e-02  -7.1390041024850970e-02  -7.6092278569651492e-02  -8.0679462243145053e-02  -8.5136138286870347e-02  -8.9511903587213143e-02  -9.3878165737212915e-02  -9.8345384763326230e-02  -1.0299375116898675e-01  -1.0792557805810503e-01  -1.1320687652593930e-01  -1.1886769727573895e-01  -1.2490281604777499e-01  -1.3128867174625788e-01  -1.3796599877150698e-01  -1.4474678802912941e-01  -1.5157559580028054e-01  -1.5831208754786169e-01  -1.6480420880589977e-01  -1.7087311859327084e-01  -1.7647905410337850e-01  -1.8152226124795789e-01  -1.8593395969356408e-01  -1.8970030943701854e-01  -1.9270560067676992e-01  -1.9510638165462041e-01  -1.9682584087318991e-01  -1.9781170949539650e-01  -1.9792743865764031e-01  -1.9736636323991061e-01  -1.9595695990468048e-01  -1.9380147077977045e-01  -1.9105296528866633e-01  -1.8746078881108735e-01  -1.8332726330146265e-01  -1.7869441785781137e-01  -1.7369364983664218e-01  -1.6835959686335053e-01  -1.6274367013305391e-01  -1.5690967174074658e-01  -1.5092665302865740e-01  -1.4481835530335643e-01  -1.3860042836892203e-01  -1.3231976478722790e-01  -1.2598057351369613e-01  -1.1960641422756768e-01  -1.1320623198625686e-01  -1.0678751805428971e-01  -1.0035860953757611e-01  -9.3928468834409626e-02  -8.7499431219180676e-02  -8.1075422935515382e-02  -7.4660106097160908e-02  -6.8256735269104293e-02  -6.1866839398234591e-02  -5.5490664830112925e-02  -4.9130797741642342e-02  -4.2787614495378372e-02  -3.6462245739501201e-02  -3.0154886498258482e-02  -2.3866047996217315e-02  -1.7596619869561431e-02  -1.1346096562739296e-02  -5.1154287998523250e-03  1.0957359170708574e-03  7.2870937231358538e-03  1.3458477568578944e-02  1.9610038603359737e-02  2.5741608271501754e-02  3.1853217479613033e-02  3.7944867663927899e-02  4.4016577819591056e-02  5.0068378786583399e-02  5.6100293570997523e-02  6.2112350325728052e-02  6.8104547467536802e-02  6.8104107643091466e-02  6.8103007961383313e-02  6.8101299754166761e-02  6.8099220650495160e-02  6.8097144854665489e-02  6.8095430336898771e-02  6.8094339059267747e-02  6.8093897367128994e-02  -2.1005093954732912e-01  -2.5116141388087287e-01  -2.5333361708629021e-01  -2.3329438816874123e-01  -2.5922912011736848e-01  -2.2255940254719503e-01  -2.1095942400692391e-01  -1.9963913659204063e-01  -1.8806439678041392e-01  -1.7693011286478480e-01  -1.6737156258677302e-01  -1.5761229434910740e-01  -1.4759343759440605e-01  -1.3709338078156397e-01  -1.2594524372274715e-01  -1.1440549169663213e-01  -1.0185770210056155e-01  -1.8948198241855563e-01  -1.6804402934215781e-01  -1.5044938786695525e-01  -1.3461318213191215e-01  -1.1721920785128229e-01  -9.5250838194436097e-02  -2.5425550334391850e-01  -1.9076710676734626e-01  -7.1238877333614642e-02  -4.9166733977049300e-02  -3.1201642617946498e-02  -2.3249693410685079e-01  -1.9293824235542510e-02  -1.2296812693764215e-02  -8.8822722247332411e-02  -7.0531941031967789e-03  -1.7321067214179486e-01  -1.4754968921842951e-01  -3.2603307753736846e-03  -1.2121736015772354e-01  -7.4519113103231296e-02  -9.6236893302769674e-02  -7.2938740123980144e-04  -6.0484346269185980e-02  -2.2113602784121081e-01  1.3805270165795807e-03  -7.3509241103585504e-02  -1.9678350310973852e-01  -4.4380053272557451e-02  3.0111011179320382e-03  -4.5125574919531508e-02  -2.6642972072785213e-02  -3.2936456698940207e-02  4.2349174682307584e-03  -2.2209928967263738e-02  -1.9486212842654338e-01  5.0153188808457387e-03  -8.7967315916296952e-03  -1.3950968218959147e-02  -1.8534239854886514e-01  -1.7048728050573447e-01  -7.2641948451200294e-03  5.2318595706574243e-03  1.1090641423655668e-02  2.5891204329573370e-02  -5.9219932661179836e-02  4.9996378738837617e-03  4.3712472991671728e-03  -1.4816908045573970e-01  -2.1154029044308507e-03  2.6160361758014068e-03  -1.2890309303572201e-01  -2.4224808242005344e-01  -2.6074302564337964e-01  -1.1016920496662598e-01  4.7055994488678322e-03  3.4358923201291444e-03  -8.5161433740380973e-02  6.0530752354406780e-03  -5.2485385083849513e-02  6.1519871842037645e-03  -2.0730850010097609e-02  5.6208932237907967e-03  -2.1114647200293451e-03  3.4768489487970504e-02  1.6679560113762665e-02  4.5560022819527085e-03  6.3056431504497870e-02  6.0571040931470829e-04  4.2406439506768326e-02  -2.2685734072633179e-01  3.0911426055713637e-03  2.0118760441082129e-03  -2.3840890340047435e-01  -2.2516903021018966e-01  -1.9734187154091537e-01  -1.8334948464902884e-01  -1.5997732679098475e-01  -9.7098507334858392e-02  -7.1764409606721535e-02  -3.8885335469002594e-02  -8.6977491758469042e-02  -1.0984389838672744e-01  -1.3342187320720264e-01  -1.6106952249246770e-01  7.3675669685461219e-04  -1.7937183462662560e-02  4.8802693188951826e-04  5.5716321791945359e-03  -3.5105100084044827e-02  5.1853765321028212e-03  4.6945819017184441e-02  4.6922645084808232e-03  3.6762201412420792e-03  -5.2305902935149674e-02  2.2467154840699224e-03  6.3024690892590107e-02  3.9123918960451084e-04  -6.7295758793534860e-02  -2.0389887545529338e-03  -4.9777030908663812e-03  -8.3454917006734658e-02  -9.4858999316231544e-03  -8.1966590033039216e-02  -1.5474902902572680e-02  -2.4723863647133731e-02  -3.9237331100243057e-02  -9.5502125905625332e-02  -5.9025613793669024e-02  4.9764857081399801e-04  -1.0814492527929523e-01  -1.2021694643107529e-01  -1.3179843974393352e-01  -1.4207201945913825e-01  -1.5286284382586540e-01  -1.6261674995953249e-01  -1.7240395674484676e-01  -1.8376457904206947e-01  -2.0010437758505462e-01  -1.9512138681547941e-01  -2.0647326052291951e-01  -2.1786619306917177e-01  -1.7849133108313300e-01  -2.3002850760004487e-01  -1.4271974091614006e-01  -1.5840144542780102e-01  -1.2711444521534190e-01  -1.0689102069533646e-01  6.3449733046212972e-02  -2.5601783535495803e-01  6.7529191422841526e-04  5.3444253282271287e-02  1.7944690861541473e-03  -2.2620794341757511e-01  5.0933605289165827e-04  6.3581184975365510e-02  -2.2598425690675555e-01  -2.2561783756158069e-01  -2.2476757831485566e-01  -2.2585478583836407e-01  -2.2501432839903709e-01  -2.2658896865419503e-01  -2.2557382993862857e-01  -2.2758394014286684e-01  -2.2640094487599191e-01  -2.2861724602757683e-01  -2.2711531971023716e-01  -2.2935189017849300e-01  -2.2737915886992077e-01  -2.2942344673351631e-01  -2.2696744591100149e-01  -2.2870028586097416e-01  -2.2560001488121298e-01  -2.2706781831388320e-01  -2.2328728090578298e-01  -2.2411894329134360e-01  -2.1965726743730096e-01  -2.2795002030197054e-01  -2.1849977072908272e-01  -2.1434570115876153e-01  -2.2419337169635892e-01  -2.2808862078774109e-01  -2.1240984192152609e-01  -2.0796745632069291e-01  -2.0627860619268801e-01  -2.0126389930242933e-01  -1.9917766254245239e-01  -1.9435640483574332e-01  -1.9189842687066233e-01  -1.8764378994743486e-01  -1.8461058484041434e-01  -1.8069160498909981e-01  -1.7740732648560881e-01  -1.7369725824748999e-01  -1.7066170502718719e-01  -1.6763224732954982e-01  -1.6457215452932472e-01  -1.6168264183092443e-01  -1.5903672966464283e-01  -1.5677326183283991e-01  -1.5423092772720065e-01  -1.5214151399158182e-01  -1.4988986976677582e-01  -1.4792873347034949e-01  -1.4592074675656763e-01  -1.4377310540040480e-01  -1.4208142241156851e-01  -2.2325957959095555e-01  -2.2653097192198821e-01  -1.3955670735409637e-01  -1.3806276180337906e-01  -1.3528334623768332e-01  -1.3385180762137694e-01  -1.3076020895928167e-01  -1.2950760084292520e-01  -1.2588428126378584e-01  -1.2452895980285369e-01  -1.2058706321731859e-01  -1.1898438984801803e-01  -2.0903150183464295e-01  -1.1496051288949050e-01  -1.1290918854592229e-01  -1.0903024803145688e-01  -1.0645989286339365e-01  -1.0294670875666406e-01  -9.9768708746857046e-02  -2.2141060662451367e-01  -2.2443635623235902e-01  -2.3120924771777557e-01  -9.6815524413144810e-02  -9.2953297986002159e-02  -2.3061220727748394e-01  -9.0730385485410139e-02  -8.6206224040601256e-02  -8.4865454720828029e-02  -7.9713701529161851e-02  -7.9248702780357977e-02  -7.3532178825316832e-02  -1.9069947840815260e-01  -7.4162822855604313e-02  -6.7817809365766465e-02  -6.9117814133537667e-02  -6.2512560180554094e-02  -6.4490489625290900e-02  -5.7661298488499393e-02  -2.2462505408792066e-01  -1.7066160628417359e-01  -6.0158852037464752e-02  -5.3284256223510448e-02  -2.1877795400244834e-01  -2.2255420519242869e-01  -2.1553394923675551e-01  -1.5452145979781401e-01  -5.6508631600819335e-02  -4.9151460782561676e-02  -5.2754591880213274e-02  -4.5399252434765516e-02  -4.9166598739525121e-02  -4.2087658783932419e-02  -9.5690390019409877e-02  -4.5946912160500578e-02  -7.4026427784529711e-02  -1.1651222900455439e-01  -4.5710774310052972e-02  -3.9002112622764096e-02  -3.5410174846620117e-02  -3.2585742580635617e-02  -3.6025962140656079e-02  -2.9969839180810885e-02  -3.3154969958985057e-02  -2.7437539872476276e-02  -3.0465640207210203e-02  -2.5106906914945520e-02  -2.7918338846441015e-02  -2.2868212902309355e-02  -2.5461604472928077e-02  -2.0785563609138330e-02  -2.3215787181665590e-02  -1.8787948810092662e-02  -2.0965448228191304e-02  -1.6782944004547509e-02  -1.8864668023363083e-02  -1.4972024752350635e-02  -1.6835899333438945e-02  -1.3284673679818790e-02  -1.5040522702084797e-02  -1.1661885549985216e-02  -1.3210125682037260e-01  -1.4089165434316889e-01  -1.3221418462851754e-02  -1.0158380871889264e-02  -1.1449239421789374e-02  -8.6740208303750406e-03  -1.9635030086370506e-01  -9.7636007225396591e-03  -7.2942291208919355e-03  -1.5202700143991932e-01  -1.6781396765607956e-01  -2.1545488585170799e-01  -2.1654954004423099e-01  -2.2424325604028972e-01  -2.2024160170627646e-01  -2.2630405370029172e-01  -2.2232660030198470e-01  -2.2806596096769916e-01  -2.2359253360941364e-01  -2.2925195780085425e-01  -2.2438205126576635e-01  -2.2969904366321178e-01  -2.2428600568374352e-01  -2.2935138043202014e-01  -2.2357576487808836e-01  -2.2853762133166508e-01  -2.2261730041611749e-01  -2.2577275246832940e-01  -2.1974554148213182e-01  -2.2320509476778738e-01  -2.1791007025184564e-01  -2.2013612375403563e-01  -2.1501761670755146e-01  -2.1668503437716627e-01  -2.1182269871963527e-01  -2.1301495574974313e-01  -2.0846782175427298e-01  -2.0920441961721176e-01  -2.0486951898194602e-01  -2.1241954736613569e-01  -2.0391005560760286e-01  -2.0052431755403749e-01  -2.0116142980780974e-01  -1.9707801913994089e-01  -1.9745123164985554e-01  -1.9357446103421777e-01  -1.9389133481848694e-01  -1.9007133580708971e-01  -1.9312830603989445e-01  -1.9064858666071366e-01  -1.8657239328840500e-01  -1.8632798930511227e-01  -1.8282512217973021e-01  -1.8290942727786352e-01  -1.7932545393755955e-01  -1.7908746998074465e-01  -1.7572228717518718e-01  -1.7526135686334210e-01  -1.7208070250405763e-01  -2.3146019697024803e-01  -1.7145303758199990e-01  -1.6835753177871568e-01  -1.6877617975817019e-01  -1.6512401605310928e-01  -1.6463792860991733e-01  -1.6144729270766123e-01  -1.6091059185546830e-01  -1.5776541218182166e-01  -2.3385846594745743e-01  -2.1896885780828532e-01  -2.3444193490042664e-01  -2.2831237069255372e-01  -1.5707713311401897e-01  -1.5402115508552874e-01  -1.5459980255236819e-01  -1.5083630846486853e-01  -1.5024725574667364e-01  -1.4706086022400519e-01  -1.4641755299700090e-01  -1.4323965636259414e-01  -1.4387620576412855e-01  -1.4004182964094752e-01  -1.3931919760847034e-01  -1.3615890612477402e-01  -1.7941110700124738e-01  -1.3537312010868791e-01  -1.3228533338533838e-01  -2.2170076716391390e-01  -2.1888029618041110e-01  -1.6555666376180631e-01  -2.1344499765825403e-01  -1.3148441451599233e-01  -1.2830693741078708e-01  -1.2936613111480727e-01  -1.2513717540407499e-01  -1.2438717028406632e-01  -1.2105054766602083e-01  -1.2181387110932132e-01  -1.1771228976157547e-01  -1.1696257128615482e-01  -1.1362077387350826e-01  -1.9761000369883433e-01  -1.1288680698248779e-01  -1.0946688091444204e-01  -1.4046046091728798e-01  -1.7782234457298249e-01  -1.2674695027451907e-01  -1.8953269300370040e-01  -1.1022500547099860e-01  -1.0604170057082044e-01  -1.0530297410612831e-01  -1.0186871891775420e-01  -8.2473068793200485e-03  -5.9996906811533197e-03  -6.7959840500366551e-03  -4.7595880324506259e-03  -5.3933917869152725e-03  -3.5844545288175518e-03  -1.0098087836516370e-01  -9.7584721458319604e-02  -9.9821186045017746e-02  -9.8363210237304308e-02  -9.4099909393103129e-02  -9.3461210197511690e-02  -8.9869369268062230e-02  -2.2840316545453326e-01  -2.1398771400104458e-01  -1.6402898806232422e-01  -1.8117747765834913e-02  -4.0734200984139796e-03  -2.4900987304252733e-03  -2.9634229395305370e-02  -1.0123431186704529e-02  -1.9170299724214424e-03  -1.0380773163017379e-03  -1.4665629694932479e-03  -2.0333761514625619e-04  -5.0543383081484098e-04  5.8048086422258561e-04  3.8021687012590135e-04  1.2908188398988729e-03  1.1982907866594224e-03  1.9586069902403631e-03  1.9412350502436453e-03  2.5745986903398447e-03  2.6167146587380936e-03  3.1289007493645691e-03  3.2264925465029619e-03  3.6272400738935270e-03  3.7613302604042683e-03  4.0707057636053048e-03  4.2337114921653105e-03  4.4484925684505428e-03  4.6456844302872917e-03  4.7843871906803424e-03  4.9786429186516202