<?xml version="1.0"?>
<VTKFile type="UnstructuredGrid"  version="0.1"  >
<UnstructuredGrid>
<Piece  NumberOfPoints="2886" NumberOfCells="5412">
<Points>
<DataArray  type="Float64"  NumberOfComponents="3"  format="ascii">0 0.1 0  0.98 0.1 0  1 0.1 0  1 0 0  1.5 0 0  3 0 0  3 0.3 0  0 0.3 0  0.01975375321854102 0.1 0  0.03918897458218897 0.1 0  0.05831079002627837 0.1 0  0.07712425666319796 0.1 0  0.0956343475259058 0.1 0  0.1138459546796227 0.1 0  0.1317638870668193 0.1 0  0.1493928840275937 0.1 0  0.1667376092280033 0.1 0  0.1838026357802664 0.1 0  0.2005924801287244 0.1 0  0.2171115811543574 0.1 0  0.2333643037107681 0.1 0  0.2493549444060462 0.1 0  0.2650877293306821 0.1 0  0.2805668058011438 0.1 0  0.2957962848620976 0.1 0  0.3107801766802674 0.1 0  0.3255224447361181 0.1 0  0.3400269848175519 0.1 0  0.3542976327080778 0.1 0  0.3683381609158136 0.1 0  0.3821522744564845 0.1 0  0.3957436316838916 0.1 0  0.4091158196437086 0.1 0  0.4222723742184605 0.1 0  0.4352167733293057 0.1 0  0.4479524348643424 0.1 0  0.4604827295467524 0.1 0  0.4728109659990664 0.1 0  0.4849404035409129 0.1 0  0.4968742471455402 0.1 0  0.508615651843175 0.1 0  0.520167721130924 0.1 0  0.5315335063628542 0.1 0  0.5427160117228604 0.1 0  0.5537181940261912 0.1 0  0.564542961924507 0.1 0  0.575193173270606 0.1 0  0.5856716438765114 0.1 0  0.5959811458006617 0.1 0  0.6061243988680743 0.1 0  0.6161040893285659 0.1 0  0.6259228503970299 0.1 0  0.6355832809287655 0.1 0  0.6450879281079505 0.1 0  0.6544393102991295 0.1 0  0.663639896558931 0.1 0  0.6726921201956305 0.1 0  0.6815983691630338 0.1 0  0.6903610031396646 0.1 0  0.6989823343332418 0.1 0  0.7074646404270378 0.1 0  0.7158101645005117 0.1 0  0.7240211149852543 0.1 0  0.7320996585612525 0.1 0  0.7400479319727645 0.1 0  0.7478680336617921 0.1 0  0.755562036504958 0.1 0  0.7631319665092091 0.1 0  0.7705798279317605 0.1 0  0.777907588066146 0.1 0  0.7851171851013118 0.1 0  0.7922105226004981 0.1 0  0.7991894774550319 0.1 0  0.8060558928136696 0.1 0  0.812811583201334 0.1 0  0.8194583352091183 0.1 0  0.8259979035038147 0.1 0  0.8324320194413813 0.1 0  0.8387623808293405 0.1 0  0.8449906627004957 0.1 0  0.8511185094880469 0.1 0  0.8571475426008311 0.1 0  0.8630793533568246 0.1 0  0.8689155114558531 0.1 0  0.8746575581239063 0.1 0  0.8803070109173519 0.1 0  0.885865363938836 0.1 0  0.8913340851680313 0.1 0  0.8967146206523592 0.1 0  0.9020083930695622 0.1 0  0.9072167995950768 0.1 0  0.9123412183131177 0.1 0  0.9173830029719022 0.1 0  0.9223434865647732 0.1 0  0.9272239785872722 0.1 0  0.9320257720706087 0.1 0  0.9367501330378739 0.1 0  0.9413983102716995 0.1 0  0.9459715351562933 0.1 0  0.9504710127113115 0.1 0  0.9548979346500661 0.1 0  0.9592534708344373 0.1 0  0.9635387708980176 0.1 0  0.9677549682252325 0.1 0  0.971903177251235 0.1 0  0.9759844952956497 0.1 0  0.9840000000000086 0.1 0  0.987999999999974 0.1 0  0.9919999999999393 0.1 0  0.9959999999999913 0.1 0  1 0.09591793123533533 0  1 0.09133596463859224 0  1 0.08619288104391448 0  1 0.08041996484521211 0  1 0.07394008421771697 0  1 0.06666666567302955 0  1 0.05850252932209174 0  1 0.04933859630113544 0  1 0.03905242821848202 0  1 0.02750659386753798 0  1 0.01454683679239736 0  1.015625 0 0  1.03125 0 0  1.046875 0 0  1.0625 0 0  1.078125 0 0  1.09375 0 0  1.109375 0 0  1.125 0 0  1.140625 0 0  1.15625 0 0  1.171875 0 0  1.1875 0 0  1.203125 0 0  1.21875 0 0  1.234375 0 0  1.25 0 0  1.265625 0 0  1.28125 0 0  1.296875 0 0  1.3125 0 0  1.328125 0 0  1.34375 0 0  1.359375 0 0  1.375 0 0  1.390625 0 0  1.40625 0 0  1.421875 0 0  1.4375 0 0  1.453125 0 0  1.46875 0 0  1.484375 0 0  1.515920751924515 0 0  1.531989369316721 0 0  1.54820720925872 0 0  1.564575665560501 0 0  1.581096138674279 0 0  1.597770029901263 0 0  1.614598783332311 0 0  1.631583831055205 0 0  1.64872661129721 0 0  1.666028606716533 0 0  1.683491276608443 0 0  1.701116134125304 0 0  1.718904673324128 0 0  1.736858414799339 0 0  1.754978895814663 0 0  1.773267661782904 0 0  1.791726281103402 0 0  1.810356325314689 0 0  1.8291593848892 0 0  1.848137076690385 0 0  1.867291007717254 0 0  1.886622833871288 0 0  1.90613418642363 0 0  1.925826753299799 0 0  1.945702199101513 0 0  1.96576223584749 0 0  1.986008569283268 0 0  2.006442931928877 0 0  2.02706707547783 0 0  2.047882750887917 0 0  2.06889175187935 0 0  2.090095860038271 0 0  2.111496891648636 0 0  2.133096679109554 0 0  2.154897066851056 0 0  2.176899916687499 0 0  2.199107102752146 0 0  2.22152053937028 0 0  2.244142122958061 0 0  2.266973806444078 0 0  2.290017523268154 0 0  2.313275249499252 0 0  2.336748971745516 0 0  2.360440702338606 0 0  2.384352453384031 0 0  2.408486280477412 0 0  2.432844240041185 0 0  2.457428414757088 0 0  2.482240901796653 0 0  2.507283830121838 0 0  2.532559332080812 0 0  2.558069568787417 0 0  2.583816724966441 0 0  2.60980299606584 0 0  2.636030600971886 0 0  2.662501790984011 0 0  2.689218818279327 0 0  2.716183964547616 0 0  2.743399548861297 0 0  2.77086788244719 0 0  2.798591312896326 0 0  2.826572223178268 0 0  2.854812990138617 0 0  2.883316031690714 0 0  2.912083780657189 0 0  2.941118704633482 0 0  2.970423276998917 0 0  3 0.02999999999994495 0  3 0.05999999999987042 0  3 0.089999999999783 0  3 0.119999999999701 0  3 0.149999999999619 0  3 0.179999999999692 0  3 0.2099999999997737 0  3 0.2399999999998511 0  3 0.2699999999999185 0  2.970138294777171 0.3 0  2.940375666438236 0.3 0  2.910711782853056 0.3 0  2.881146331305122 0.3 0  2.851678975030285 0.3 0  2.822309388626621 0.3 0  2.793037250095074 0.3 0  2.76386223529133 0.3 0  2.734784017903872 0.3 0  2.705802289276642 0.3 0  2.676916713794697 0.3 0  2.648126987654635 0.3 0  2.619432780406184 0.3 0  2.590833779385199 0.3 0  2.562329669847737 0.3 0  2.533920134950189 0.3 0  2.505604855727852 0.3 0  2.477383539822502 0.3 0  2.449255847639465 0.3 0  2.421221492569094 0.3 0  2.393280152486815 0.3 0  2.36543151914496 0.3 0  2.337675285481809 0.3 0  2.310011142385583 0.3 0  2.282438797441587 0.3 0  2.254957931061538 0.3 0  2.227568248063605 0.3 0  2.200269436651085 0.3 0  2.173061204949961 0.3 0  2.145943251515011 0.3 0  2.118915272469994 0.3 0  2.091976978084957 0.3 0  2.065128060700849 0.3 0  2.038368218849433 0.3 0  2.01169717777258 0.3 0  1.985114624111908 0.3 0  1.958620267850966 0.3 0  1.93221382054972 0.3 0  1.905894991850698 0.3 0  1.879663489459713 0.3 0  1.853519019126419 0.3 0  1.827461291053897 0.3 0  1.801490031354372 0.3 0  1.775604937580312 0.3 0  1.74980572560258 0.3 0  1.724092118631866 0.3 0  1.698463829173586 0.3 0  1.672920575782554 0.3 0  1.647462076974085 0.3 0  1.622088043536933 0.3 0  1.5967981978949 0.3 0  1.571592267767068 0.3 0  1.546469970305736 0.3 0  1.521431023814044 0.3 0  1.496475156230927 0.3 0  1.471602093687753 0.3 0  1.446811560490646 0.3 0  1.422103279101731 0.3 0  1.397476971708191 0.3 0  1.37293238939876 0.3 0  1.348469231419202 0.3 0  1.324087248732772 0.3 0  1.299786165921677 0.3 0  1.275565710847046 0.3 0  1.251425617644257 0.3 0  1.227365618676339 0.3 0  1.203385446174014 0.3 0  1.179484853067473 0.3 0  1.155663548773374 0.3 0  1.131921292279077 0.3 0  1.108257802159295 0.3 0  1.084672829009693 0.3 0  1.061166115303374 0.3 0  1.037737392995421 0.3 0  1.01438640299116 0.3 0  0.991112899770314 0.3 0  0.9679166155523955 0.3 0  0.944797284182564 0.3 0  0.921754678526042 0.3 0  0.8987885143602501 0.3 0  0.8758985548820624 0.3 0  0.8530845484099929 0.3 0  0.8303462351786988 0.3 0  0.8076833651172373 0.3 0  0.7850956864865304 0.3 0  0.7625829601354557 0.3 0  0.7401449314598274 0.3 0  0.717781337993959 0.3 0  0.6954919649675473 0.3 0  0.6732765357561226 0.3 0  0.6511348120768439 0.3 0  0.6290665642016573 0.3 0  0.6070715355430467 0.3 0  0.5851494825775325 0.3 0  0.5633001690203812 0.3 0  0.5415233562273221 0.3 0  0.5198187909431873 0.3 0  0.4981862401387795 0.3 0  0.4766254686134248 0.3 0  0.4551362360485234 0.3 0  0.4337182975262159 0.3 0  0.4123714223228037 0.3 0  0.3910953802377493 0.3 0  0.3698899313205595 0.3 0  0.3487548463710963 0.3 0  0.3276898864081783 0.3 0  0.3066948129116018 0.3 0  0.2857694003037476 0.3 0  0.2649134227095047 0.3 0  0.2441266417321288 0.3 0  0.2234088223399122 0.3 0  0.2027597568977288 0.3 0  0.1821792020676698 0.3 0  0.1616669305402443 0.3 0  0.1412227158799362 0.3 0  0.12084633013886 0.3 0  0.1005375673448281 0.3 0  0.08029618164595353 0.3 0  0.06012194778526769 0.3 0  0.04001466495039718 0.3 0  0.01997408913631205 0.3 0  0 0.2800000000000553 0  0 0.2600000000001105 0  0 0.2400000000001658 0  0 0.2200000000002211 0  0 0.2000000000002764 0  0 0.1800000000002244 0  0 0.1600000000001691 0  0 0.140000000000115 0  0 0.1200000000000564 0  1.13346801534201 0.01255848438672509 0  1.003577645172735 0.09351054173913405 0  0.9777559943702486 0.1034978156913738 0  0.9524533750752109 0.1040889939962738 0  0.9296242411226409 0.1041520033606139 0  0.9046110503652111 0.104409422380137 0  0.8777709649694228 0.1053360318797398 0  0.8483859145648608 0.1061007868330701 0  0.8162363822948977 0.1052777104363292 0  0.7893110024210437 0.1060761643971561 0  0.7587949382612539 0.1067265405088633 0  0.7280603867732535 0.1069398153264939 0  0.6947001989413015 0.1075609887579097 0  0.6590363283767549 0.1076715322596598 0  0.6210028614493155 0.1072970410408442 0  1.1953125 0.01353164693413185 0  1.258193991486058 0.01269648635163345 0  1.3201967268638 0.01407907077719561 0  1.383538555392096 0.01434101079053473 0  1.445312500000001 0.01303671693628424 0  1.508925448095738 0.01398525724792267 0  0.9939176689634008 0.1034638089837981 0  1.120967497222226 0.2796788492172345 0  1.572835902117391 0.01424132418857359 0  1.637573277451887 0.01212536916586023 0  1.709730776795181 0.01466855431023635 0  1.005631976950563 0.07074019818158772 0  1.784944696816299 0.01454708406461822 0  0.5805605730631225 0.1101465090472147 0  1.855621181165637 0.01550931272897607 0  0.5366111276616774 0.1096761308243709 0  1.935200147913231 0.01760344159641829 0  1.214922267975168 0.2799787705802257 0  1.31178773425331 0.2792
[...]
<PointData  Scalars="pressure"> 
<DataArray  type="Float64"  Name="pressure"  format="ascii">1.6064322702069797e-01  -1.6490266143601737e-01  -2.1806907273595985e-01  -1.6239533660877986e-01  -4.1879251587587513e-02  0.0000000000000000e+00  0.0000000000000000e+00  1.6064999104842545e-01  1.5471710459622576e-01  1.4888647569754004e-01  1.4314977533677112e-01  1.3750547929000020e-01  1.3195207544389440e-01  1.2648808537106562e-01  1.2111207391814680e-01  1.1582257373997162e-01  1.1061818905445248e-01  1.0549753242692957e-01  1.0045920211952944e-01  9.5501849767477179e-02  9.0624161312019780e-02  8.5824778975127483e-02  8.1102406897549176e-02  7.6455828329365247e-02  7.1883658719541443e-02  6.7384704566022538e-02  6.2957727691687004e-02  5.8601437251751612e-02  5.4314670397817025e-02  5.0096297090560543e-02  4.5944984702700122e-02  4.1859651702046134e-02  3.7839025663557485e-02  3.3882011750893039e-02  2.9987564956929114e-02  2.6154433571374619e-02  2.2381449845769234e-02  1.8667570321578238e-02  1.5011675519427068e-02  1.1412588995350685e-02  7.8693219140622429e-03  4.3806611278707610e-03  9.4559260470845679e-04  -2.4370402236632699e-03  -5.7682970572850989e-03  -9.0488756834289502e-03  -1.2280526886384088e-02  -1.5463883377033886e-02  -1.8600043543266505e-02  -2.1690254509787628e-02  -2.4735522987424891e-02  -2.7736322450338257e-02  -3.0694620278206988e-02  -3.3610924178765204e-02  -3.6486335904358874e-02  -3.9321968459779894e-02  -4.2118798109514390e-02  -4.4877856433539455e-02  -4.7600300336024588e-02  -5.0287051148303979e-02  -5.2939062430490333e-02  -5.5557274584583698e-02  -5.8143211839585311e-02  -6.0697278596562911e-02  -6.3220710772894137e-02  -6.5714165638726701e-02  -6.8179590731679521e-02  -7.0617417990603920e-02  -7.3027922948651999e-02  -7.5412779861061416e-02  -7.7773506141908783e-02  -8.0109856230046211e-02  -8.2423812869636376e-02  -8.4716084886648502e-02  -8.6986981210540937e-02  -8.9238023672553166e-02  -9.1470088521699855e-02  -9.3684076002302066e-02  -9.5881645660966949e-02  -9.8062920293235836e-02  -1.0022835823932506e-01  -1.0237861827510426e-01  -1.0451693039930007e-01  -1.0664247737996679e-01  -1.0875591377278651e-01  -1.1085900410363721e-01  -1.1295212518559442e-01  -1.1503616842145246e-01  -1.1711216010828372e-01  -1.1918182646425293e-01  -1.2124558798672989e-01  -1.2330361747991408e-01  -1.2535804742861095e-01  -1.2740963419843421e-01  -1.2945932689328338e-01  -1.3150825656603793e-01  -1.3355738968217262e-01  -1.3560802676920175e-01  -1.3766145481158268e-01  -1.3971905518683012e-01  -1.4178202888784452e-01  -1.4385156769151061e-01  -1.4592607551681649e-01  -1.4798748766875641e-01  -1.5034664671890163e-01  -1.5104991198453457e-01  -1.5405984991479130e-01  -1.4923654534268138e-01  -1.5457375086656400e-01  -1.5303695547373045e-01  -2.0464716152972451e-01  -1.8287883380206502e-01  -1.7625009059640959e-01  -1.7144040437867802e-01  -1.6819964944782451e-01  -1.6577012209630046e-01  -1.6395229737524311e-01  -1.6262267600522867e-01  -1.6182637801767727e-01  -1.6163440270892435e-01  -1.6204317547240907e-01  -1.6283622223724917e-01  -1.6321332405946581e-01  -1.6301095842420429e-01  -1.6234449710500012e-01  -1.6130479333803871e-01  -1.5993572935529529e-01  -1.5822246078376065e-01  -1.5615228288977032e-01  -1.5375411561456234e-01  -1.5104513196843480e-01  -1.4802914479982038e-01  -1.4471961358908500e-01  -1.4112730414846136e-01  -1.3726395523930254e-01  -1.3314956201750547e-01  -1.2879663619062928e-01  -1.2421717957166498e-01  -1.1942910588806419e-01  -1.1445087214410549e-01  -1.0929252150074897e-01  -1.0398386181779751e-01  -9.8542541351036461e-02  -9.2984149033539354e-02  -8.7339180006799758e-02  -8.1625836929601320e-02  -7.5873230585818907e-02  -7.0103596384961775e-02  -6.4339497820742192e-02  -5.8612587912600982e-02  -5.2943734374396784e-02  -4.7359041710679804e-02  -3.6428314646108115e-02  -3.1091949639540681e-02  -2.5879698287401727e-02  -2.0826275120561118e-02  -1.5959214384235740e-02  -1.1280469246645275e-02  -6.8182127156852330e-03  -2.5779751351198677e-03  1.3910923750250588e-03  5.1126809431117594e-03  8.5855518196983772e-03  1.1788199626010784e-02  1.4722594997426246e-02  1.7395318000544089e-02  1.9810049857581464e-02  2.1971721337511043e-02  2.3895593919102096e-02  2.5582034823981650e-02  2.7045645437754999e-02  2.8316951033217311e-02  2.9384538097545206e-02  3.0278877523183336e-02  3.1013728461567042e-02  3.1597378950495678e-02  3.2051503369676063e-02  3.2380817386615593e-02  3.2616705091840656e-02  3.2749885032039211e-02  3.2801636061700515e-02  3.2777002167048368e-02  3.2683975321901093e-02  3.2532182587516528e-02  3.2331015107238410e-02  3.2084666082850967e-02  3.1793944188543130e-02  3.1466111396601895e-02  3.1101884476967902e-02  3.0703991469239269e-02  3.0273506237964286e-02  2.9810813163712303e-02  2.9316246306866418e-02  2.8789679400715210e-02  2.8229813957327047e-02  2.7636891447617173e-02  2.7008349240475762e-02  2.6342806914713142e-02  2.5641315212934196e-02  2.4898998041690816e-02  2.4113857385805949e-02  2.3290207187496696e-02  2.2418495109904429e-02  2.1505738947728354e-02  2.0541458796420289e-02  1.9534445186361906e-02  1.8476917787364652e-02  1.7365077496708525e-02  1.6209389408513072e-02  1.4995683748666744e-02  1.3735292210655821e-02  1.2422127667035092e-02  1.1055167124850768e-02  9.6344103339062719e-03  8.1619972960103489e-03  6.6410966678636428e-03  5.0622694495267477e-03  3.4432604143144032e-03  1.7677474726722736e-03  0.0000000000000000e+00  0.0000000000000000e+00  0.0000000000000000e+00  0.0000000000000000e+00  0.0000000000000000e+00  0.0000000000000000e+00  0.0000000000000000e+00  0.0000000000000000e+00  0.0000000000000000e+00  1.9214546500808160e-03  3.7144150888162334e-03  5.4796302402992840e-03  7.1914821718037274e-03  8.8537528290876539e-03  1.0465150952485444e-02  1.2024729986492433e-02  1.3530737683668569e-02  1.4980269227390385e-02  1.6371078084274491e-02  1.7699104828035019e-02  1.8961823169706259e-02  2.0154108631374436e-02  2.1272910292324681e-02  2.2313331474945713e-02  2.3268738676236769e-02  2.4138698429216811e-02  2.4912005774546650e-02  2.5583953583887188e-02  2.6148348792120593e-02  2.6598288450903930e-02  2.6927102290324925e-02  2.7129087417178219e-02  2.7193495686143862e-02  2.7118673153727887e-02  2.6892942197362938e-02  2.6514145700212773e-02  2.5970963927318482e-02  2.5258339391139792e-02  2.4373701842261643e-02  2.3306414094561509e-02  2.2051113933897287e-02  2.0622795664949071e-02  1.9007310857110521e-02  1.7178691314561047e-02  1.5177411931346141e-02  1.2980186763657701e-02  1.0588027462508511e-02  8.0024942270495673e-03  5.2312415012538572e-03  2.2655379804944224e-03  -8.8075910965289110e-04  -4.2160763812116924e-03  -7.7297019709471910e-03  -1.1432831177153088e-02  -1.5309531196621349e-02  -1.9360985465290421e-02  -2.3577955320893528e-02  -2.7963644794582555e-02  -3.2503840190362891e-02  -3.7195484506501661e-02  -4.2026792127011520e-02  -4.6983884986070416e-02  -5.2057717237785683e-02  -5.7232216768156548e-02  -6.2482988698986691e-02  -6.7749373094802820e-02  -7.3078803835602044e-02  -7.8384465370258949e-02  -8.3605075258238223e-02  -8.8744685479170637e-02  -9.3730387899528783e-02  -9.8541631726541887e-02  -1.0307125862437498e-01  -1.0731167673921632e-01  -1.1115175969004154e-01  -1.1457915604722471e-01  -1.1748149598150985e-01  -1.1986319827503242e-01  -1.2159141778255078e-01  -1.2268238092983667e-01  -1.2306656369268397e-01  -1.2262001730979252e-01  -1.2151703369534836e-01  -1.1963239456247977e-01  -1.1698036906541059e-01  -1.1368401296238832e-01  -1.0977295907298948e-01  -1.0537328842294395e-01  -1.0055511431660076e-01  -9.5321208448144984e-02  -8.9802814087668839e-02  -8.4038294456557167e-02  -7.8115559588361222e-02  -7.2039288633717849e-02  -6.5836153373847225e-02  -5.9555633686480106e-02  -5.3210157584501670e-02  -4.6810237722292397e-02  -4.0378122392657298e-02  -3.3918649967357294e-02  -2.7449064274005789e-02  -2.0972130722300909e-02  -1.4490284349347441e-02  -8.0142749317450752e-03  -1.5452702198158390e-03  4.9155845310296133e-03  1.1365025447203667e-02  1.7800147868194695e-02  2.4219864127480482e-02  3.0623691047285979e-02  3.7010194708445521e-02  4.3379201686544556e-02  4.9729206478133552e-02  5.6060545287569055e-02  6.2372542583798325e-02  6.8664948376744778e-02  7.4937677021104529e-02  8.1190444014946475e-02  8.7423206710894319e-02  9.3635937040200373e-02  9.9828548651506144e-02  1.0600102153721325e-01  1.1215336035132498e-01  1.1828558007175602e-01  1.2439766509974776e-01  1.3048968566025426e-01  1.3656166592951788e-01  1.4261363732552876e-01  1.4864565456144674e-01  1.5465775505510942e-01  1.6064996491741579e-01  1.6064968377869190e-01  1.6064899717414202e-01  1.6064791937258036e-01  1.6064661019696680e-01  1.6064529967052144e-01  1.6064421961636299e-01  1.6064352843677385e-01  1.6064324830804302e-01  -1.5459004704083004e-01  -1.8750534133037974e-01  -1.5400875427223348e-01  -1.4076950845785102e-01  -1.3057607503046695e-01  -1.2028482873205734e-01  -1.0997836570777136e-01  -9.9314079432333988e-02  -8.8180114509842408e-02  -7.9182955225462953e-02  -6.9242440818940085e-02  -5.9436717749680928e-02  -4.8965410310345646e-02  -3.7912120824718898e-02  -2.6238457758072230e-02  -1.4277967215381035e-01  -1.2638008036907095e-01  -1.0677391238871926e-01  -8.4417378894363002e-02  -6.1743369183124001e-02  -3.9178461021717702e-02  -1.6608252123961953e-01  -1.2157020088232856e-01  -1.8781599805876042e-02  -1.5415219537695951e-03  1.2839907019216163e-02  -1.6768557273686713e-01  2.2870654631276625e-02  -1.3916266609366148e-02  2.8462511244020879e-02  -5.9349840839447614e-04  3.1598564209497318e-02  -1.1229987629294906e-01  -9.5497437267302920e-02  3.2655631136963729e-02  -7.5290666155434186e-02  1.3212512098359963e-02  -4.9111822681882862e-02  3.2343367918300128e-02  2.8069629668860886e-02  -1.6013589253903515e-01  3.1212857259861386e-02  -2.5535067977430752e-02  -1.2160261366223259e-01  4.3470246256870813e-02  2.9513238856153264e-02  -2.4892855939577913e-03  6.0966522735586809e-02  6.4812774813164786e-03  2.7258241659794871e-02  1.4180253064735414e-02  7.8256764791015579e-02  -1.1504807997853332e-01  2.4520487310833734e-02  1.9804003574040999e-02  -1.0286104950009246e-01  2.3847692928051382e-02  2.1004234621775784e-02  -8.6919073616193623e-02  9.8456405811506151e-02  1.1247330561536618e-01  -1.3258998401133804e-02  1.7890696190350861e-02  1.4192581567226329e-02  2.6171160103252024e-02  -6.9146369928117568e-02  2.7056827502839595e-02  -1.4693640271226788e-01  -4.4037804865444681e-02  2.6273211789686553e-02  1.2992495837645837e-01  -2.4249391278948779e-02  1.0316559808540664e-02  2.3636081608345301e-02  -4.6591756637198020e-03  2.1177090883814229e-02  2.0645112241242075e-02  5.2895471518993459e-02  1.6976436140421543e-02  7.1857591268818174e-02  9.0635559889723355e-02  1.2733685769193297e-02  1.2223595578508381e-01  1.6089969494305115e-03  1.5506661290914928e-01  -1.6282560292897899e-01  8.1186028633280435e-03  5.7297079710943062e-03  1.4003864573469679e-01  -1.7427388755220663e-01  -1.6218388695817490e-01  -1.1807076850529807e-01  -5.6291076404367930e-02  7.6461979054917991e-03  3.3484644056623672e-02  1.4037916551730423e-01  -3.9724469801037512e-02  -6.4391206704779685e-02  -8.5541529962795348e-02  -1.0452785271044074e-01  8.8518952220608418e-02  2.6906027351164038e-02  6.9346411685242776e-02  1.0287733625088930e-01  2.5160367125151961e-02  2.2847845569338304e-02  5.1645578435778057e-02  2.5884858491594415e-02  2.8467357959850507e-02  3.6109758999886193e-02  3.0429640020319206e-02  3.1862577277832350e-02  3.2631407969517474e-02  3.2363163982643897e-02  -2.8851342834035690e-02  2.0522849740443699e-02  3.0343768323713226e-02  2.6007005526250203e-02  6.1419069553377845e-03  1.8476772339293127e-02  6.4689988227986843e-03  -9.2884671677441865e-03  1.3415574035827082e-03  -7.7722301523347600e-03  -1.9698263974051305e-02  1.5540658767222532e-01  -3.1843414890193829e-02  -4.3509355211589343e-02  -5.4263083866835600e-02  -6.4579172854983283e-02  -7.4294069027424428e-02  -8.3495045920676539e-02  -1.4915321181346175e-01  -9.4824699091396264e-02  -1.0562973164757763e-01  -1.1614204092494962e-01  -1.3514176792962670e-01  -1.2653511526677602e-01  -9.6095220710174331e-02  -1.1648037339774095e-01  -7.4062619172586969e-02  -5.0462160119221264e-02  -1.3673726024375399e-01  -1.5357633331389339e-01  1.6880545726865048e-03  1.5490966573265705e-01  4.5256971197346497e-03  -1.6260821744760087e-01  1.5565859990672684e-01  1.3675218668673568e-03  1.5155397251729760e-01  -1.6257829834893039e-01  -1.6224054096713786e-01  -1.6178393047767523e-01  -1.6228220992671230e-01  -1.6180785812483728e-01  -1.6263496633733887e-01  -1.6197968482063610e-01  -1.6309209464189367e-01  -1.6226614542659112e-01  -1.6341748100049966e-01  -1.6247278045918595e-01  -1.6334787392696123e-01  -1.6220846685192733e-01  -1.6271814887308930e-01  -1.6144256617132174e-01  -1.6162821337067426e-01  -1.6017916747617017e-01  -1.6013100925788354e-01  -1.5851383643113195e-01  -1.5804080544318722e-01  -1.5613172441717843e-01  -1.5969794657265793e-01  -1.5670453213213384e-01  -1.5393627469228502e-01  -1.5688668211268320e-01  -1.5879143651463784e-01  -1.5427181519532748e-01  -1.5136883824569666e-01  -1.5162621822889999e-01  -1.4835981534949705e-01  -1.4850020644702208e-01  -1.4491214230027874e-01  -1.4497327982329827e-01  -1.4131709544638824e-01  -1.4104313905769850e-01  -1.3665139164180684e-01  -1.3649025116292135e-01  -1.3228226210422545e-01  -1.3169504190582645e-01  -1.2732550746173824e-01  -1.2650107245867076e-01  -1.2204103381840131e-01  -1.2099331845971449e-01  -1.1649033403201524e-01  -1.1517946177706442e-01  -1.1070331022402689e-01  -1.0909312048917796e-01  -1.0469309602236027e-01  -1.0279790242365788e-01  -9.8540923159211924e-02  -9.6304714476628889e-02  -9.2283252284101974e-02  -8.9596783307423142e-02  -1.5485510790037851e-01  -1.5652133861214265e-01  -8.5933875689293365e-02  -8.2821980151856711e-02  -7.9582955502405739e-02  -7.6474482520949114e-02  -7.3314857450669027e-02  -6.9858283186847392e-02  -6.7142731026287913e-02  -6.3359953720882781e-02  -1.5018457346035477e-01  -6.1180515154312061e-02  -5.6972270482942351e-02  -5.5116792139929087e-02  -5.0710800723643479e-02  -4.9483315147273388e-02  -4.4730108738527764e-02  -1.5177485425767462e-01  -1.5350153365129349e-01  -1.6384700533050492e-01  -4.3979249267610994e-02  -3.8941662562319873e-02  -3.8751453976929896e-02  -3.3434017685419128e-02  -3.3779901186739930e-02  -2.8240447530745994e-02  -1.5995369797960080e-01  -2.9084120501494823e-02  -2.3328611971056033e-02  -1.4053146538503167e-01  -2.4650019314679687e-02  -1.8747056480160309e-02  -2.0510410687235785e-02  -1.4488837468451109e-02  -1.6583560961865852e-02  -1.0544726803940039e-02  -1.6081043211425367e-01  -1.2715134153706328e-01  -1.2992649605837042e-02  -6.9166906409425860e-03  -1.4769686491842926e-01  -1.4865603274863870e-01  -1.4631316832067925e-01  -1.1131493642274272e-01  -9.5954476503663511e-03  -3.4431215770513238e-03  -6.5439653720639895e-03  -3.2636678566492702e-04  -3.6462235399665603e-03  2.3709826657677272e-03  -3.9799533697492451e-02  -6.5984500496267442e-04  -2.2738630709169268e-02  -5.9256338573697886e-02  -9.6319499579487116e-04  4.8420504075009302e-03  8.1694118139700577e-03  1.0487759431363975e-02  7.1524331743923223e-03  1.2577735160047237e-02  9.3302021997943053e-03  1.4527323424543217e-02  1.1294901239148732e-02  1.6223760647607957e-02  1.3093503219533410e-02  1.7786097053444701e-02  1.4785942699144863e-02  1.9158219240177979e-02  1.6252477460862717e-02  2.0411195620702930e-02  1.7718880651946361e-02  2.1657364235524539e-02  1.9028109756489050e-02  2.2679389852411479e-02  2.0262052691315802e-02  2.3567704825941761e-02  2.1248732325699699e-02  2.4376534082220593e-02  -7.9411112893903374e-02  -9.4274339291243708e-02  2.2259328133839462e-02  2.5059672876954635e-02  2.3218691844231285e-02  2.5710046749621643e-02  -1.4777232630177650e-01  -1.1305387721523150e-01  2.4073909308150183e-02  2.6247940088664962e-02  -1.3017516618986885e-01  -7.6890549672406300e-02  -1.4270626159042718e-01  -1.4319748508572103e-01  -1.4984304725617703e-01  -1.4324704935839749e-01  -1.4867499268524023e-01  -1.4253169951861416e-01  -1.4811191119915015e-01  -1.4124092564100318e-01  -1.4498907615270401e-01  -1.3897711998162746e-01  -1.4277180395385419e-01  -1.3637236473627898e-01  -1.3863819026759897e-01  -1.3318861106545113e-01  -1.3479748353269219e-01  -1.2988501698618216e-01  -1.3091778705441379e-01  -1.2637401844576590e-01  -1.2703366233212690e-01  -1.2282253589263004e-01  -1.2314846824380479e-01  -1.1920176669064395e-01  -1.1929878125288283e-01  -1.1557212788775996e-01  -1.1547166152613972e-01  -1.1197665075896349e-01  -1.1134818204564037e-01  -1.0811502587251835e-01  -1.0839916798167941e-01  -1.0478400321806544e-01  -1.0443826056605408e-01  -1.0117399331319307e-01  -1.0085011350926862e-01  -9.7609541824224336e-02  -9.7042453628386566e-02  -9.3989577527601564e-02  -1.2810174939301833e-01  -1.0461823551469315e-01  -1.1844341040547551e-01  -9.3366763010179002e-02  -9.0292089029272354e-02  -9.0688474359526650e-02  -8.7154146483059788e-02  -8.6554510968754508e-02  -8.3538101626050146e-02  -8.2772979475756861e-02  -7.9870451649201590e-02  -7.9007430640179774e-02  -7.6149334040898312e-02  -8.3404762030865248e-02  -1.5362484318196423e-01  -1.4386363696868754e-01  -7.5303019125554732e-02  -7.2370365631881983e-02  -7.3180068382978067e-02  -6.9402276809318972e-02  -6.8567399100993992e-02  -6.5642225273189331e-02  -6.4708705034327199e-02  -6.1858966853077631e-02  -1.3538909031618712e-01  -6.6216523000267452e-02  -6.0873581992855599e-02  -5.8090122672646655e-02  -1.2699980607248434e-01  -5.7152493551303481e-02  -5.4267022799567730e-02  -5.5480509391272755e-02  -5.1333598642926338e-02  -5.0334726198016384e-02  -4.7286103625904345e-02  -4.8246660266445938e-02  -4.4197763366049296e-02  -4.3256788625945855e-02  -4.0158651528136649e-02  -3.9212665128674752e-02  -3.6027171427000446e-02  -3.6999705555385717e-02  -3.2869220372025977e-02  -3.1870489895350324e-02  -2.8735458305519275e-02  -2.7778614352506968e-02  -2.4620626392884544e-02  -1.3759135288036495e-01  -1.0403799690263993e-01  -1.1883996986904419e-01  -2.3760152745698895e-02  -2.0538636962535793e-02  -2.1412225463860669e-02  -1.7175469970230527e-02  -1.6309334900799922e-02  -1.2945315921720050e-02  -1.8048070338767867e-02  2.4753815231667208e-02  2.6697140987218777e-02  2.5374554162818589e-02  2.7078810677931386e-02  2.5930064428382752e-02  2.7388405810295929e-02  -8.5824841046337072e-02  -4.8960205575695165e-02  -1.6365866746338162e-01  -1.2049278423660607e-02  -8.7513523467333838e-03  -9.6313525781839077e-02  2.2232822952018293e-02  2.6483355691615560e-02  1.3277674007612674e-02  2.6394092247009494e-02  2.7616879265032417e-02  2.8699484623625666e-02  2.8704978623190113e-02  2.7770474370042080e-02  2.8658022186310937e-02  2.7856779632800303e-02  2.8552006057247035e-02  2.7860199912290971e-02  2.8378512592730800e-02  2.7791185862822875e-02  2.8146972949818543e-02  2.7637963019071368e-02  2.7843568867180705e-02  2.7408136841025672e-02  2.7480608494318236e-02  2.7105415835908125e-02  2.7055994523958304e-02  2.6733024785420861e-02  2.6572181705170943e-02  2.6280510446873774e-02  2.6013755206013758e-02  2.5745835300664828e-02  2.5403867631649577e-02  2.5133698465148242e-02  2.4706751826599257e-02  2.4461297950924381e-02  2.3969373531114880e-02  2.3694506833577392e-02  2.3146038073443880e-02  2.2871505082020144e-02  2.2274953185536791e-02  2.8315079140749721e-02  -3.3909103507547250e-02  -6.7670364760028662e-02  -7.7345551762352405e-03  -4.4485359662592523e-03  -5.4567094492561294e-03  -1.0016996066467558e-03  -2.0543893017868848e-03  2.5047621362835463e-03  3.4361502598608470e-03  6.9628932070260061e-03  8.0130720260138278e-03  1.1512810075949518e-02  1.0560082234970323e-02  1.5098514805457867e-02  1.5908367565125526e-02  1.9601342550080860e-02  2.0396477952984621e