<?xml version="1.0"?>
<VTKFile type="UnstructuredGrid"  version="0.1"  >
<UnstructuredGrid>
<Piece  NumberOfPoints="2886" NumberOfCells="5412">
<Points>
<DataArray  type="Float64"  NumberOfComponents="3"  format="ascii">0 0.1 0  0.98 0.1 0  1 0.1 0  1 0 0  1.5 0 0  3 0 0  3 0.3 0  0 0.3 0  0.01975375321854102 0.1 0  0.03918897458218897 0.1 0  0.05831079002627837 0.1 0  0.07712425666319796 0.1 0  0.0956343475259058 0.1 0  0.1138459546796227 0.1 0  0.1317638870668193 0.1 0  0.1493928840275937 0.1 0  0.1667376092280033 0.1 0  0.1838026357802664 0.1 0  0.2005924801287244 0.1 0  0.2171115811543574 0.1 0  0.2333643037107681 0.1 0  0.2493549444060462 0.1 0  0.2650877293306821 0.1 0  0.2805668058011438 0.1 0  0.2957962848620976 0.1 0  0.3107801766802674 0.1 0  0.3255224447361181 0.1 0  0.3400269848175519 0.1 0  0.3542976327080778 0.1 0  0.3683381609158136 0.1 0  0.3821522744564845 0.1 0  0.3957436316838916 0.1 0  0.4091158196437086 0.1 0  0.4222723742184605 0.1 0  0.4352167733293057 0.1 0  0.4479524348643424 0.1 0  0.4604827295467524 0.1 0  0.4728109659990664 0.1 0  0.4849404035409129 0.1 0  0.4968742471455402 0.1 0  0.508615651843175 0.1 0  0.520167721130924 0.1 0  0.5315335063628542 0.1 0  0.5427160117228604 0.1 0  0.5537181940261912 0.1 0  0.564542961924507 0.1 0  0.575193173270606 0.1 0  0.5856716438765114 0.1 0  0.5959811458006617 0.1 0  0.6061243988680743 0.1 0  0.6161040893285659 0.1 0  0.6259228503970299 0.1 0  0.6355832809287655 0.1 0  0.6450879281079505 0.1 0  0.6544393102991295 0.1 0  0.663639896558931 0.1 0  0.6726921201956305 0.1 0  0.6815983691630338 0.1 0  0.6903610031396646 0.1 0  0.6989823343332418 0.1 0  0.7074646404270378 0.1 0  0.7158101645005117 0.1 0  0.7240211149852543 0.1 0  0.7320996585612525 0.1 0  0.7400479319727645 0.1 0  0.7478680336617921 0.1 0  0.755562036504958 0.1 0  0.7631319665092091 0.1 0  0.7705798279317605 0.1 0  0.777907588066146 0.1 0  0.7851171851013118 0.1 0  0.7922105226004981 0.1 0  0.7991894774550319 0.1 0  0.8060558928136696 0.1 0  0.812811583201334 0.1 0  0.8194583352091183 0.1 0  0.8259979035038147 0.1 0  0.8324320194413813 0.1 0  0.8387623808293405 0.1 0  0.8449906627004957 0.1 0  0.8511185094880469 0.1 0  0.8571475426008311 0.1 0  0.8630793533568246 0.1 0  0.8689155114558531 0.1 0  0.8746575581239063 0.1 0  0.8803070109173519 0.1 0  0.885865363938836 0.1 0  0.8913340851680313 0.1 0  0.8967146206523592 0.1 0  0.9020083930695622 0.1 0  0.9072167995950768 0.1 0  0.9123412183131177 0.1 0  0.9173830029719022 0.1 0  0.9223434865647732 0.1 0  0.9272239785872722 0.1 0  0.9320257720706087 0.1 0  0.9367501330378739 0.1 0  0.9413983102716995 0.1 0  0.9459715351562933 0.1 0  0.9504710127113115 0.1 0  0.9548979346500661 0.1 0  0.9592534708344373 0.1 0  0.9635387708980176 0.1 0  0.9677549682252325 0.1 0  0.971903177251235 0.1 0  0.9759844952956497 0.1 0  0.9840000000000086 0.1 0  0.987999999999974 0.1 0  0.9919999999999393 0.1 0  0.9959999999999913 0.1 0  1 0.09591793123533533 0  1 0.09133596463859224 0  1 0.08619288104391448 0  1 0.08041996484521211 0  1 0.07394008421771697 0  1 0.06666666567302955 0  1 0.05850252932209174 0  1 0.04933859630113544 0  1 0.03905242821848202 0  1 0.02750659386753798 0  1 0.01454683679239736 0  1.015625 0 0  1.03125 0 0  1.046875 0 0  1.0625 0 0  1.078125 0 0  1.09375 0 0  1.109375 0 0  1.125 0 0  1.140625 0 0  1.15625 0 0  1.171875 0 0  1.1875 0 0  1.203125 0 0  1.21875 0 0  1.234375 0 0  1.25 0 0  1.265625 0 0  1.28125 0 0  1.296875 0 0  1.3125 0 0  1.328125 0 0  1.34375 0 0  1.359375 0 0  1.375 0 0  1.390625 0 0  1.40625 0 0  1.421875 0 0  1.4375 0 0  1.453125 0 0  1.46875 0 0  1.484375 0 0  1.515920751924515 0 0  1.531989369316721 0 0  1.54820720925872 0 0  1.564575665560501 0 0  1.581096138674279 0 0  1.597770029901263 0 0  1.614598783332311 0 0  1.631583831055205 0 0  1.64872661129721 0 0  1.666028606716533 0 0  1.683491276608443 0 0  1.701116134125304 0 0  1.718904673324128 0 0  1.736858414799339 0 0  1.754978895814663 0 0  1.773267661782904 0 0  1.791726281103402 0 0  1.810356325314689 0 0  1.8291593848892 0 0  1.848137076690385 0 0  1.867291007717254 0 0  1.886622833871288 0 0  1.90613418642363 0 0  1.925826753299799 0 0  1.945702199101513 0 0  1.96576223584749 0 0  1.986008569283268 0 0  2.006442931928877 0 0  2.02706707547783 0 0  2.047882750887917 0 0  2.06889175187935 0 0  2.090095860038271 0 0  2.111496891648636 0 0  2.133096679109554 0 0  2.154897066851056 0 0  2.176899916687499 0 0  2.199107102752146 0 0  2.22152053937028 0 0  2.244142122958061 0 0  2.266973806444078 0 0  2.290017523268154 0 0  2.313275249499252 0 0  2.336748971745516 0 0  2.360440702338606 0 0  2.384352453384031 0 0  2.408486280477412 0 0  2.432844240041185 0 0  2.457428414757088 0 0  2.482240901796653 0 0  2.507283830121838 0 0  2.532559332080812 0 0  2.558069568787417 0 0  2.583816724966441 0 0  2.60980299606584 0 0  2.636030600971886 0 0  2.662501790984011 0 0  2.689218818279327 0 0  2.716183964547616 0 0  2.743399548861297 0 0  2.77086788244719 0 0  2.798591312896326 0 0  2.826572223178268 0 0  2.854812990138617 0 0  2.883316031690714 0 0  2.912083780657189 0 0  2.941118704633482 0 0  2.970423276998917 0 0  3 0.02999999999994495 0  3 0.05999999999987042 0  3 0.089999999999783 0  3 0.119999999999701 0  3 0.149999999999619 0  3 0.179999999999692 0  3 0.2099999999997737 0  3 0.2399999999998511 0  3 0.2699999999999185 0  2.970138294777171 0.3 0  2.940375666438236 0.3 0  2.910711782853056 0.3 0  2.881146331305122 0.3 0  2.851678975030285 0.3 0  2.822309388626621 0.3 0  2.793037250095074 0.3 0  2.76386223529133 0.3 0  2.734784017903872 0.3 0  2.705802289276642 0.3 0  2.676916713794697 0.3 0  2.648126987654635 0.3 0  2.619432780406184 0.3 0  2.590833779385199 0.3 0  2.562329669847737 0.3 0  2.533920134950189 0.3 0  2.505604855727852 0.3 0  2.477383539822502 0.3 0  2.449255847639465 0.3 0  2.421221492569094 0.3 0  2.393280152486815 0.3 0  2.36543151914496 0.3 0  2.337675285481809 0.3 0  2.310011142385583 0.3 0  2.282438797441587 0.3 0  2.254957931061538 0.3 0  2.227568248063605 0.3 0  2.200269436651085 0.3 0  2.173061204949961 0.3 0  2.145943251515011 0.3 0  2.118915272469994 0.3 0  2.091976978084957 0.3 0  2.065128060700849 0.3 0  2.038368218849433 0.3 0  2.01169717777258 0.3 0  1.985114624111908 0.3 0  1.958620267850966 0.3 0  1.93221382054972 0.3 0  1.905894991850698 0.3 0  1.879663489459713 0.3 0  1.853519019126419 0.3 0  1.827461291053897 0.3 0  1.801490031354372 0.3 0  1.775604937580312 0.3 0  1.74980572560258 0.3 0  1.724092118631866 0.3 0  1.698463829173586 0.3 0  1.672920575782554 0.3 0  1.647462076974085 0.3 0  1.622088043536933 0.3 0  1.5967981978949 0.3 0  1.571592267767068 0.3 0  1.546469970305736 0.3 0  1.521431023814044 0.3 0  1.496475156230927 0.3 0  1.471602093687753 0.3 0  1.446811560490646 0.3 0  1.422103279101731 0.3 0  1.397476971708191 0.3 0  1.37293238939876 0.3 0  1.348469231419202 0.3 0  1.324087248732772 0.3 0  1.299786165921677 0.3 0  1.275565710847046 0.3 0  1.251425617644257 0.3 0  1.227365618676339 0.3 0  1.203385446174014 0.3 0  1.179484853067473 0.3 0  1.155663548773374 0.3 0  1.131921292279077 0.3 0  1.108257802159295 0.3 0  1.084672829009693 0.3 0  1.061166115303374 0.3 0  1.037737392995421 0.3 0  1.01438640299116 0.3 0  0.991112899770314 0.3 0  0.9679166155523955 0.3 0  0.944797284182564 0.3 0  0.921754678526042 0.3 0  0.8987885143602501 0.3 0  0.8758985548820624 0.3 0  0.8530845484099929 0.3 0  0.8303462351786988 0.3 0  0.8076833651172373 0.3 0  0.7850956864865304 0.3 0  0.7625829601354557 0.3 0  0.7401449314598274 0.3 0  0.717781337993959 0.3 0  0.6954919649675473 0.3 0  0.6732765357561226 0.3 0  0.6511348120768439 0.3 0  0.6290665642016573 0.3 0  0.6070715355430467 0.3 0  0.5851494825775325 0.3 0  0.5633001690203812 0.3 0  0.5415233562273221 0.3 0  0.5198187909431873 0.3 0  0.4981862401387795 0.3 0  0.4766254686134248 0.3 0  0.4551362360485234 0.3 0  0.4337182975262159 0.3 0  0.4123714223228037 0.3 0  0.3910953802377493 0.3 0  0.3698899313205595 0.3 0  0.3487548463710963 0.3 0  0.3276898864081783 0.3 0  0.3066948129116018 0.3 0  0.2857694003037476 0.3 0  0.2649134227095047 0.3 0  0.2441266417321288 0.3 0  0.2234088223399122 0.3 0  0.2027597568977288 0.3 0  0.1821792020676698 0.3 0  0.1616669305402443 0.3 0  0.1412227158799362 0.3 0  0.12084633013886 0.3 0  0.1005375673448281 0.3 0  0.08029618164595353 0.3 0  0.06012194778526769 0.3 0  0.04001466495039718 0.3 0  0.01997408913631205 0.3 0  0 0.2800000000000553 0  0 0.2600000000001105 0  0 0.2400000000001658 0  0 0.2200000000002211 0  0 0.2000000000002764 0  0 0.1800000000002244 0  0 0.1600000000001691 0  0 0.140000000000115 0  0 0.1200000000000564 0  1.13346801534201 0.01255848438672509 0  1.003577645172735 0.09351054173913405 0  0.9777559943702486 0.1034978156913738 0  0.9524533750752109 0.1040889939962738 0  0.9296242411226409 0.1041520033606139 0  0.9046110503652111 0.104409422380137 0  0.8777709649694228 0.1053360318797398 0  0.8483859145648608 0.1061007868330701 0  0.8162363822948977 0.1052777104363292 0  0.7893110024210437 0.1060761643971561 0  0.7587949382612539 0.1067265405088633 0  0.7280603867732535 0.1069398153264939 0  0.6947001989413015 0.1075609887579097 0  0.6590363283767549 0.1076715322596598 0  0.6210028614493155 0.1072970410408442 0  1.1953125 0.01353164693413185 0  1.258193991486058 0.01269648635163345 0  1.3201967268638 0.01407907077719561 0  1.383538555392096 0.01434101079053473 0  1.445312500000001 0.01303671693628424 0  1.508925448095738 0.01398525724792267 0  0.9939176689634008 0.1034638089837981 0  1.120967497222226 0.2796788492172345 0  1.572835902117391 0.01424132418857359 0  1.637573277451887 0.01212536916586023 0  1.709730776795181 0.01466855431023635 0  1.005631976950563 0.07074019818158772 0  1.784944696816299 0.01454708406461822 0  0.5805605730631225 0.1101465090472147 0  1.855621181165637 0.01550931272897607 0  0.5366111276616774 0.1096761308243709 0  1.935200147913231 0.01760344159641829 0  1.214922267975168 0.2799787705802257 0  1.31178773425331 0.2792
[...]
<PointData  Scalars="pressure"> 
<DataArray  type="Float64"  Name="pressure"  format="ascii">1.6191169111791939e-01  -1.6482658616000564e-01  -2.1991077737330444e-01  -1.6333770487366731e-01  -4.3725769954010341e-02  0.0000000000000000e+00  0.0000000000000000e+00  1.6191804848663635e-01  1.5598556846320547e-01  1.5015494321549233e-01  1.4441825198286273e-01  1.3877397090066881e-01  1.3322058905282633e-01  1.2775662854412878e-01  1.2238065381215898e-01  1.1709120007959151e-01  1.1188687134636589e-01  1.0676628110141463e-01  1.0172803007734674e-01  9.6770770942267423e-02  9.1893189865877578e-02  8.7093932842219349e-02  8.2371705470697165e-02  7.7725289651707941e-02  7.3153309057685634e-02  6.8654569657383827e-02  6.4227835925301235e-02  5.9871823723799233e-02  5.5585370534297227e-02  5.1367346784373574e-02  4.7216431360686782e-02  4.3131542084543381e-02  3.9111417177643736e-02  3.5154962793236939e-02  3.1261135273473913e-02  2.7428694061653942e-02  2.3656480153119545e-02  1.9943452683411897e-02  1.6288499691120312e-02  1.2690456292487159e-02  9.1483352770704175e-03  5.6609390752316701e-03  2.2272589464897709e-03  -1.1538488014141849e-03  -4.4834358421928112e-03  -7.7622061488683107e-03  -1.0991865259869775e-02  -1.4173059509436245e-02  -1.7306867574756076e-02  -2.0394519514138853e-02  -2.3437011232304725e-02  -2.6434826899717455e-02  -2.9389878301016956e-02  -3.2302684292936756e-02  -3.5174327956933524e-02  -3.8005902549978730e-02  -4.0798373001552854e-02  -4.3552753189020237e-02  -4.6270175792999448e-02  -4.8951551883570588e-02  -5.1597819844927041e-02  -5.4209904752154224e-02  -5.6789286256342386e-02  -5.9336380955956197e-02  -6.1852393023515188e-02  -6.4337980019808824e-02  -6.6795008330541999e-02  -6.9223933788315692e-02  -7.1625037649014345e-02  -7.3999935570822184e-02  -7.6350094976981905e-02  -7.8675312674132261e-02  -8.0977485783331110e-02  -8.3257323249720905e-02  -8.5515134456431732e-02  -8.7752382911462784e-02  -8.9969922709169717e-02  -9.2168624121944043e-02  -9.4350082631571089e-02  -9.6514418583663886e-02  -9.8662108780987690e-02  -1.0079375483090069e-01  -1.0291244101091326e-01  -1.0501740451776206e-01  -1.0710926242970306e-01  -1.0918968806314740e-01  -1.1125903067355750e-01  -1.1331812862587200e-01  -1.1536792530289160e-01  -1.1741003370698719e-01  -1.1944483007190659e-01  -1.2147243252957922e-01  -1.2349479367777093e-01  -1.2551256192611177e-01  -1.2752655301453744e-01  -1.2953771450358909e-01  -1.3154682948403429e-01  -1.3355495419161159e-01  -1.3556307998522416e-01  -1.3757222370384398e-01  -1.3958301466897799e-01  -1.4159643721906404e-01  -1.4360854793547634e-01  -1.4559606210025672e-01  -1.4794392933211703e-01  -1.4822908123751796e-01  -1.5082604833646646e-01  -1.4418381353501800e-01  -1.4977132968731888e-01  -1.4907583999950527e-01  -2.0584765383395609e-01  -1.8385142827516926e-01  -1.7719083986326153e-01  -1.7237025252065474e-01  -1.6912745543200458e-01  -1.6669877879877332e-01  -1.6488339476465017e-01  -1.6355740206134536e-01  -1.6276485549059003e-01  -1.6257598569069120e-01  -1.6298599522590937e-01  -1.6377805797746398e-01  -1.6415619981888463e-01  -1.6395625253052012e-01  -1.6329359388456804e-01  -1.6225932391190864e-01  -1.6089767150491158e-01  -1.5919427146858481e-01  -1.5713678558068489e-01  -1.5475425898735187e-01  -1.5206398073839611e-01  -1.4906994213293315e-01  -1.4578564765167862e-01  -1.4222187587230509e-01  -1.3839035663959234e-01  -1.3431090106459423e-01  -1.2999584844119336e-01  -1.2545701317485322e-01  -1.2071199225901828e-01  -1.1577885908004817e-01  -1.1066727635020440e-01  -1.0540654665923137e-01  -1.0001367117134351e-01  -9.4503800982956659e-02  -8.8906626847386330e-02  -8.3239915507637374e-02  -7.7531740876421382e-02  -7.1803918693798943e-02  -6.6078295296135611e-02  -6.0385781415778737e-02  -5.4746692229734988e-02  -4.9186558983257564e-02  -3.8287990329139314e-02  -3.2958204044440886e-02  -2.7745747017162019e-02  -2.2684923502834610e-02  -1.7803264683699385e-02  -1.3102561886757354e-02  -8.6115621264405088e-03  -4.3359042989687810e-03  -3.2436638066995447e-04  3.4455368758165789e-03  6.9717874455644457e-03  1.0232500743639994e-02  1.3228961589345726e-02  1.5966819926578873e-02  1.8448949177157607e-02  2.0679553284621070e-02  2.2673009190012000e-02  2.4428955060412500e-02  2.5961465188289436e-02  2.7300234145055460e-02  2.8433395102683712e-02  2.9390902410343360e-02  3.0186146994379433e-02  3.0827200694278970e-02  3.1335399932142079e-02  3.1715311632311415e-02  3.1998597111353805e-02  3.2175544440052002e-02  3.2267691165651861e-02  3.2280107838238391e-02  3.2220876207447555e-02  3.2099847812444258e-02  3.1926695557802628e-02  3.1705820995761573e-02  3.1438096573281914e-02  3.1131153078260448e-02  3.0785842942663906e-02  3.0405166682046115e-02  2.9990381983562589e-02  2.9542061638614264e-02  2.9060734252305931e-02  2.8546452430145430e-02  2.7998038266545001e-02  2.7415945188585093e-02  2.6797671224810967e-02  2.6141941990965274e-02  2.5450025077300837e-02  2.4717012355643653e-02  2.3940945408733001e-02  2.3126349232124102e-02  2.2263557339483906e-02  2.1359786502647832e-02  2.0404410570672906e-02  1.9406437187787229e-02  1.8357965436412771e-02  1.7255235791772832e-02  1.6108765719870046e-02  1.4904268008104495e-02  1.3653211021376749e-02  1.2349417670369095e-02  1.0991867124921664e-02  9.5805016389848303e-03  8.1174317353641494e-03  6.6058907682148074e-03  5.0364025087002483e-03  3.4265246988943281e-03  1.7600602125648632e-03  0.0000000000000000e+00  0.0000000000000000e+00  0.0000000000000000e+00  0.0000000000000000e+00  0.0000000000000000e+00  0.0000000000000000e+00  0.0000000000000000e+00  0.0000000000000000e+00  0.0000000000000000e+00  1.9082168573009038e-03  3.6884921237312464e-03  5.4406682033164419e-03  7.1392519032302910e-03  8.7880119040810497e-03  1.0385582530564503e-02  1.1930960648675999e-02  1.3422367602501307e-02  1.4856867963046753e-02  1.6232163353649270e-02  1.7544171293142462e-02  1.8790319473358585e-02  1.9965463835772239e-02  2.1066524508272122e-02  2.2088612322460371e-02  2.3025010560483790e-02  2.3875339981994131e-02  2.4628346458196448e-02  2.5279332965535268e-02  2.5822117349215228e-02  2.6249781991729577e-02  2.6555735272154463e-02  2.6734249546088273e-02  2.6774494074240450e-02  2.6675256510837707e-02  2.6424457345039665e-02  2.6020222095322322e-02  2.5451240346659753e-02  2.4712480087450511e-02  2.3801440403747761e-02  2.2707408566465550e-02  2.1425062947812379e-02  1.9969583324247371e-02  1.8326842281491909e-02  1.6470655995088481e-02  1.4441256557623527e-02  1.2216181272250473e-02  9.7955933580678636e-03  7.1814357962368403e-03  4.3811616024032642e-03  1.3860879237162546e-03  -1.7897348388973924e-03  -5.1550813271977044e-03  -8.6990863467206504e-03  -1.2433189012006756e-02  -1.6340489223691912e-02  -2.0422751410129881e-02  -2.4669655754056021e-02  -2.9085046837761218e-02  -3.3653866428637803e-02  -3.8372580847255783e-02  -4.3229052305059495e-02  -4.8208488662865208e-02  -5.3301590909701650e-02  -5.8491981613977118e-02  -6.3754049488939771e-02  -6.9024376264000570e-02  -7.4354720023675200e-02  -7.9653937142024442e-02  -8.4859167155354062e-02  -8.9975918656553369e-02  -9.4929442038429110e-02  -9.9699208253641369e-02  -1.0417673228574817e-01  -1.0835383728759612e-01  -1.1211862200749320e-01  -1.1545865346954397e-01  -1.1826032329325743e-01  -1.2052869363400895e-01  -1.2213052334745310e-01  -1.2308325019217338e-01  -1.2331874541513167e-01  -1.2271636877014248e-01  -1.2145344434981369e-01  -1.1941089727519040e-01  -1.1660781296441489e-01  -1.1317133512488384e-01  -1.0913513827971315e-01  -1.0462542245738465e-01  -9.9712341158197534e-02  -9.4400535634568433e-02  -8.8817373690485785e-02  -8.3000222069139151e-02  -7.7033293170784209e-02  -7.0921281329072369e-02  -6.4689710483573734e-02  -5.8385771374939131e-02  -5.2021255377063716e-02  -4.5606217051737820e-02  -3.9161787557161425e-02  -3.2692560193453402e-02  -2.6214909636148004e-02  -1.9731444609820903e-02  -1.3244479870750198e-02  -6.7642053807654536e-03  -2.9171772706076710e-04  6.1718963497783517e-03  1.2623550037442576e-02  1.9060492617125332e-02  2.5481703082926601e-02  3.1886724770660818e-02  3.8274205370077169e-02  4.4643982862706551e-02  5.0994639091258169e-02  5.7326494024966618e-02  6.3638913937704322e-02  6.9931665563817649e-02  7.6204672137020785e-02  8.2457668176692936e-02  8.8690617714565101e-02  9.4903497859218519e-02  1.0109623053654304e-01  1.0726880098478703e-01  1.1342121733102059e-01  1.1955349754435292e-01  1.2566563077134044e-01  1.3175768675954155e-01  1.3782969242589888e-01  1.4388168128853787e-01  1.4991370833765619e-01  1.5592581306178888e-01  1.6191802391086602e-01  1.6191775961718047e-01  1.6191711426059174e-01  1.6191610128578665e-01  1.6191487089441450e-01  1.6191363923377464e-01  1.6191262414202612e-01  1.6191197448478251e-01  1.6191171113927727e-01  -1.5558389278488752e-01  -1.8858165233975274e-01  -1.5157477390853519e-01  -1.3858723761894412e-01  -1.2861744681791498e-01  -1.1849387984744067e-01  -1.0831538889394003e-01  -9.7752762576598387e-02  -8.6699271139978579e-02  -7.7751376096402577e-02  -6.7852835104867906e-02  -5.8078377677374199e-02  -4.7631855075354945e-02  -3.6597575230208255e-02  -2.4938126239898332e-02  -1.4385982544834555e-01  -1.2759880517119421e-01  -1.0816835620337215e-01  -8.6004495997440450e-02  -6.3492990234634880e-02  -4.1025323853723483e-02  -1.6323867076684581e-01  -1.2205534108841021e-01  -2.0626924718802613e-02  -3.2805508109932887e-03  1.1316223293621280e-02  -1.6862115809682379e-01  2.1622106852499139e-02  -1.2626201472815148e-02  2.7469224599423334e-02  6.8904282737517917e-04  3.0850237975893053e-02  -1.1322558810296258e-01  -9.6675717778508113e-02  3.2104878723798226e-02  -7.6560683869609431e-02  1.4489971931652242e-02  -5.0341275492911050e-02  3.1919850721547294e-02  2.9343625979015787e-02  -1.6109561271461867e-01  3.0883873085774779e-02  -2.6635993023176357e-02  -1.2161888128140996e-01  4.4742010010490475e-02  2.9248193835444670e-02  -3.4081645099181988e-03  6.2236785323103040e-02  5.6487779246878157e-03  2.7040891183437991e-02  1.3436114645100744e-02  7.9526179915634473e-02  -1.1461580265969923e-01  2.4340711746437725e-02  1.9141068101238907e-02  -1.0207234063285364e-01  2.3266828725995409e-02  2.0861309197974885e-02  -8.5910775375645093e-02  9.9725281243445624e-02  1.1374197395053419e-01  -1.4269692102580561e-02  1.7775235635057389e-02  1.4106084692484661e-02  2.5667334939636841e-02  -6.8016833242831309e-02  2.6653226875534022e-02  -1.4458283675270209e-01  -4.2829346141770669e-02  2.5937189607997325e-02  1.3119348599128508e-01  -2.3012431217862173e-02  1.0257140585263258e-02  2.3382934476577678e-02  -3.4075118889552356e-03  2.2438134770380310e-02  2.0448050484994849e-02  5.4161124826471160e-02  1.6829844960525094e-02  7.3124433960430460e-02  9.1903037213737035e-02  1.2632820611763029e-02  1.2350390042965587e-01  1.5984110879678792e-03  1.5633483714519489e-01  -1.6376361875373033e-01  8.0587222373334818e-03  5.6989976182628714e-03  1.4130668048714401e-01  -1.7522898154801467e-01  -1.6313166469690110e-01  -1.1880022646687594e-01  -5.5112534776761431e-02  8.9033170787127369e-03  3.4748035482157574e-02  1.4164765148738956e-01  -4.0911266733563809e-02  -6.5661060581647751e-02  -8.6783526468713360e-02  -1.0560395438919357e-01  8.9788047411982291e-02  2.6451984653733711e-02  7.0616205263617240e-02  1.0414505880115553e-01  2.4867068785895712e-02  2.2686648914432398e-02  5.2916537056836105e-02  2.5688049451899574e-02  2.8227327428482302e-02  3.7382459094944732e-02  3.0135468535902800e-02  3.1491051775004705e-02  3.2143227763000090e-02  3.1723686374853788e-02  -3.0711005567617574e-02  2.1798403926558591e-02  2.9477856787664406e-02  2.4887314119373435e-02  7.4217078143997079e-03  1.7088613613730156e-02  4.8315529131663136e-03  -1.1089692827332624e-02  1.3339540395485264e-03  -6.4860381668252007e-03  -1.8403877335620940e-02  1.5667496388089369e-01  -3.0536819402082936e-02  -4.2185966861921276e-02  -5.2917937482082553e-02  -6.3205449102734151e-02  -7.2884554058009907e-02  -8.2041267632633669e-02  -1.5018481418374202e-01  -9.3298792643136910e-02  -1.0401195205919832e-01  -1.1440661990812240e-01  -1.3628457660415597e-01  -1.2464815131288411e-01  -9.7584248876393345e-02  -1.1778765522565678e-01  -7.5729648585447173e-02  -5.2270602557069681e-02  -1.3465264228883222e-01  -1.4972831482833343e-01  1.6764790419689392e-03  1.5617776115456580e-01  4.4937310901788773e-03  -1.6355117970352917e-01  1.5692705689182937e-01  1.3607057715117889e-03  1.5282202789310151e-01  -1.6352303964757189e-01  -1.6318637620725276e-01  -1.6273280227119258e-01  -1.6322817710329574e-01  -1.6275670170504436e-01  -1.6358070556680321e-01  -1.6292864282572428e-01  -1.6403811175892313e-01  -1.6321543321382601e-01  -1.6436477294747973e-01  -1.6342336200464427e-01  -1.6429734800036927e-01  -1.6316180449733825e-01  -1.6366945089577625e-01  -1.6239886048653565e-01  -1.6257781141651978e-01  -1.6113593074900381e-01  -1.6107244574195162e-01  -1.5946534615234936e-01  -1.5896190600205870e-01  -1.5707310678868311e-01  -1.6059742086703863e-01  -1.5767253720119270e-01  -1.5489891606629044e-01  -1.5774601008107184e-01  -1.5960996759986620e-01  -1.5525528302545022e-01  -1.5235427782502270e-01  -1.5262993191339241e-01  -1.4937092896973050e-01  -1.4952763260743693e-01  -1.4595108285417177e-01  -1.4602835296920294e-01  -1.4238844014381047e-01  -1.4213005568743250e-01  -1.3775955551295788e-01  -1.3761426716867006e-01  -1.3343014993952390e-01  -1.3285928378450423e-01  -1.2851533039493593e-01  -1.2770924206874773e-01  -1.2327472710149991e-01  -1.2224794265751619e-01  -1.1776896613202727e-01  -1.1648230940688192e-01  -1.1202702145994750e-01  -1.1044517281566030e-01  -1.0606068423016639e-01  -1.0419858137450616e-01  -9.9950526723729838e-02  -9.7750949599862400e-02  -9.3731208790740372e-02  -9.1090575679086933e-02  -1.5561367702363815e-01  -1.5720066456552506e-01  -8.7414308853754855e-02  -8.4353070845042316e-02  -8.1092821077278762e-02  -7.8037810906533223e-02  -7.4844265857152342e-02  -7.1448105241326929e-02  -6.8685074924491663e-02  -6.4968175313672383e-02  -1.5113970139201649e-01  -6.2729242512463410e-02  -5.8590831451917014e-02  -5.6650193498407213e-02  -5.2328436027562764e-02  -5.1017914039281069e-02  -4.6340911296413163e-02  -1.5239326048013069e-01  -1.5398549221924360e-01  -1.6479487909512572e-01  -4.5494271114471983e-02  -4.0535566212296315e-02  -4.0240176022570746e-02  -3.5001714052313684e-02  -3.5235439930180683e-02  -2.9774290478607267e-02  -1.6068276140908433e-01  -3.0500394936024449e-02  -2.4820807525534460e-02  -1.4157432924240140e-01  -2.6021770858574531e-02  -2.0191503585401453e-02  -2.1834377747875989e-02  -1.5880717642884602e-02  -1.7858720484839597e-02  -1.1880234357818164e-02  -1.6176957656846150e-01  -1.2831704371883901e-01  -1.4215748939055415e-02  -8.1935309414265176e-03  -1.4814408143908314e-01  -1.4894209776291806e-01  -1.4688857781432851e-01  -1.1260956983067574e-01  -1.0766486825111315e-02  -4.6603317111182686e-03  -7.6616739930285491e-03  -1.4831039842763878e-03  -4.7130870341365681e-03  1.2733894375752993e-03  -4.1484152496126081e-02  -1.9940531254428635e-03  -2.4348811846766159e-02  -6.0926347579178128e-02  -1.9816831817695791e-03  3.8012224521381537e-03  7.0361801401314112e-03  9.4182806411442378e-03  6.1651676896434275e-03  1.1568961578180274e-02  8.3929273073892648e-03  1.3577211193332031e-02  1.0405247184889586e-02  1.5330487363877130e-02  1.2248518370460993e-02  1.6944315869025957e-02  1.3982028163615793e-02  1.8364661513230511e-02  1.5486559253018027e-02  1.9661481235089505e-02  1.6988162511642580e-02  2.0948405303403098e-02  1.8330225700698383e-02  2.2007603692992234e-02  1.9594088722646678e-02  2.2930475233219054e-02  2.0608043367321121e-02  2.3770487008470727e-02  -8.0987940435021014e-02  -9.5676080657384852e-02  2.1644394648037683e-02  2.4482443595026993e-02  2.2628521645382461e-02  2.5158988350854800e-02  -1.4881085179289580e-01  -1.1438096461223840e-01  2.3507431671619824e-02  2.5721843018963880e-02  -1.3135535886947058e-01  -7.8365625370810876e-02  -1.4298374525110710e-01  -1.4328716056594917e-01  -1.4989829693789564e-01  -1.4310419819202974e-01  -1.4842742507215284e-01  -1.4213503355422460e-01  -1.4752105498129653e-01  -1.4057547639207665e-01  -1.4409929471841310e-01  -1.3807038219311374e-01  -1.4161232110646446e-01  -1.3526132937408789e-01  -1.3728368024165188e-01  -1.3192427992867498e-01  -1.3331597133266099e-01  -1.2851186960988809e-01  -1.2936430261445556e-01  -1.2493305678175277e-01  -1.2544484416314039e-01  -1.2134355829730244e-01  -1.2154936370572728e-01  -1.1770491583868557e-01  -1.1770334037321777e-01  -1.1406960180944750e-01  -1.1388841784519747e-01  -1.1047618575690102e-01  -1.0978472030295876e-01  -1.0662814172010976e-01  -1.0698319244771040e-01  -1.0336615581340663e-01  -1.0295950769094968e-01  -9.9756974316581343e-02  -9.9376117660887511e-02  -9.6194429654269109e-02  -9.5581780018130100e-02  -9.2580447794097520e-02  -1.2696480649285705e-01  -1.0328283106814716e-01  -1.1706949058828396e-01  -9.1918640855199671e-02  -8.8889438167661691e-02  -8.9332163915531407e-02  -8.5797800368970625e-02  -8.5158545282308082e-02  -8.2181327265434562e-02  -8.1384247086257799e-02  -7.8515819156523711e-02  -7.7626254346633228e-02  -7.4799391259363801e-02  -8.2089306024643802e-02  -1.5324775738799060e-01  -1.4239394602228692e-01  -7.3929412555568660e-02  -7.1024251006096648e-02  -7.1860940184420866e-02  -6.8083938317186690e-02  -6.7224958630515280e-02  -6.4323759234470701e-02  -6.3370479908100810e-02  -6.0541775824277673e-02  -1.3369133224539195e-01  -6.4923194409643475e-02  -5.9539682875666522e-02  -5.6774255340032234e-02  -1.2529111070257137e-01  -5.5822813801826243e-02  -5.2953452166298612e-02  -5.4182580488734373e-02  -5.0036069473613193e-02  -4.9023297313421518e-02  -4.5988510251733498e-02  -4.6964896890789469e-02  -4.2913774454539984e-02  -4.1959406336980538e-02  -3.8873119549604665e-02  -3.7915878480355034e-02  -3.4740652917960378e-02  -3.5725253136492913e-02  -3.1592338825994555e-02  -3.0583493188369705e-02  -2.7456873399906417e-02  -2.6491699173084374e-02  -2.3341022565109622e-02  -1.3732043920928047e-01  -1.0250613158305104e-01  -1.1717932318305405e-01  -2.2473607910500997e-02  -1.9258412260498691e-02  -2.0139457701155192e-02  -1.5901215090315769e-02  -1.5028894783579591e-02  -1.1669925653778685e-02  -1.6781404367907433e-02  2.4208142532813670e-02  2.6193193987954187e-02  2.4849247602805238e-02  2.6596381765195923e-02  2.5424698390833871e-02  2.6926065848936736e-02  -8.4400221653717383e-02  -5.0395844133876634e-02  -1.6460250174543339e-01  -1.0768857703796365e-02  -7.4753173940990993e-03  -9.4821257548694998e-02  2.1391512095173728e-02  2.5872420411808084e-02  1.2112135549171050e-02  2.5908337538518587e-02  2.7173646119593279e-02  2.8278373391637385e-02  2.8302476301362997e-02  2.7345426128569821e-02  2.8273325939126365e-02  2.7449630058654573e-02  2.8184362140245143e-02  2.7470222841599230e-02  2.8026602520077538e-02  2.7418117365936412e-02  2.7810557134978989e-02  2.7281260655669392e-02  2.7522057898248600e-02  2.7067184741376701e-02  2.7173653992786050e-02  2.6780243940789053e-02  2.6763237107131004e-02  2.6423532753752244e-02  2.6293572495155838e-02  2.5986928116329865e-02  2.5748954358085989e-02  2.5467682861048089e-02  2.5152915078893848e-02  2.4870394807577939e-02  2.4469168580551676e-02  2.4213125763088629e-02  2.3745356998052209e-02  2.3461991566250048e-02  2.2935359202913754e-02  2.2652416295390474e-02  2.2077473664396621e-02  2.7828340480430275e-02  -3.2644340921132900e-02  -6.6308877371536623e-02  -6.4543865266882272e-03  -3.1721709523939053e-03  -4.1848152970602528e-03  2.7106390960670592e-04  -7.8621910066782185e-04  3.7742860523383120e-03  4.7095295199094545e-03  8.2334107460479491e-03  9.2868015917413008e-03  1.2784051527542984e-02  1.1828136843867786e-02  1.6367555757047011e-02  1.7180068474285142e-02  2.0871116245492073e-02  2.1668407067642628e-