<?xml version="1.0"?>
<VTKFile type="UnstructuredGrid"  version="0.1"  >
<UnstructuredGrid>
<Piece  NumberOfPoints="2886" NumberOfCells="5412">
<Points>
<DataArray  type="Float64"  NumberOfComponents="3"  format="ascii">0 0.1 0  0.98 0.1 0  1 0.1 0  1 0 0  1.5 0 0  3 0 0  3 0.3 0  0 0.3 0  0.01975375321854102 0.1 0  0.03918897458218897 0.1 0  0.05831079002627837 0.1 0  0.07712425666319796 0.1 0  0.0956343475259058 0.1 0  0.1138459546796227 0.1 0  0.1317638870668193 0.1 0  0.1493928840275937 0.1 0  0.1667376092280033 0.1 0  0.1838026357802664 0.1 0  0.2005924801287244 0.1 0  0.2171115811543574 0.1 0  0.2333643037107681 0.1 0  0.2493549444060462 0.1 0  0.2650877293306821 0.1 0  0.2805668058011438 0.1 0  0.2957962848620976 0.1 0  0.3107801766802674 0.1 0  0.3255224447361181 0.1 0  0.3400269848175519 0.1 0  0.3542976327080778 0.1 0  0.3683381609158136 0.1 0  0.3821522744564845 0.1 0  0.3957436316838916 0.1 0  0.4091158196437086 0.1 0  0.4222723742184605 0.1 0  0.4352167733293057 0.1 0  0.4479524348643424 0.1 0  0.4604827295467524 0.1 0  0.4728109659990664 0.1 0  0.4849404035409129 0.1 0  0.4968742471455402 0.1 0  0.508615651843175 0.1 0  0.520167721130924 0.1 0  0.5315335063628542 0.1 0  0.5427160117228604 0.1 0  0.5537181940261912 0.1 0  0.564542961924507 0.1 0  0.575193173270606 0.1 0  0.5856716438765114 0.1 0  0.5959811458006617 0.1 0  0.6061243988680743 0.1 0  0.6161040893285659 0.1 0  0.6259228503970299 0.1 0  0.6355832809287655 0.1 0  0.6450879281079505 0.1 0  0.6544393102991295 0.1 0  0.663639896558931 0.1 0  0.6726921201956305 0.1 0  0.6815983691630338 0.1 0  0.6903610031396646 0.1 0  0.6989823343332418 0.1 0  0.7074646404270378 0.1 0  0.7158101645005117 0.1 0  0.7240211149852543 0.1 0  0.7320996585612525 0.1 0  0.7400479319727645 0.1 0  0.7478680336617921 0.1 0  0.755562036504958 0.1 0  0.7631319665092091 0.1 0  0.7705798279317605 0.1 0  0.777907588066146 0.1 0  0.7851171851013118 0.1 0  0.7922105226004981 0.1 0  0.7991894774550319 0.1 0  0.8060558928136696 0.1 0  0.812811583201334 0.1 0  0.8194583352091183 0.1 0  0.8259979035038147 0.1 0  0.8324320194413813 0.1 0  0.8387623808293405 0.1 0  0.8449906627004957 0.1 0  0.8511185094880469 0.1 0  0.8571475426008311 0.1 0  0.8630793533568246 0.1 0  0.8689155114558531 0.1 0  0.8746575581239063 0.1 0  0.8803070109173519 0.1 0  0.885865363938836 0.1 0  0.8913340851680313 0.1 0  0.8967146206523592 0.1 0  0.9020083930695622 0.1 0  0.9072167995950768 0.1 0  0.9123412183131177 0.1 0  0.9173830029719022 0.1 0  0.9223434865647732 0.1 0  0.9272239785872722 0.1 0  0.9320257720706087 0.1 0  0.9367501330378739 0.1 0  0.9413983102716995 0.1 0  0.9459715351562933 0.1 0  0.9504710127113115 0.1 0  0.9548979346500661 0.1 0  0.9592534708344373 0.1 0  0.9635387708980176 0.1 0  0.9677549682252325 0.1 0  0.971903177251235 0.1 0  0.9759844952956497 0.1 0  0.9840000000000086 0.1 0  0.987999999999974 0.1 0  0.9919999999999393 0.1 0  0.9959999999999913 0.1 0  1 0.09591793123533533 0  1 0.09133596463859224 0  1 0.08619288104391448 0  1 0.08041996484521211 0  1 0.07394008421771697 0  1 0.06666666567302955 0  1 0.05850252932209174 0  1 0.04933859630113544 0  1 0.03905242821848202 0  1 0.02750659386753798 0  1 0.01454683679239736 0  1.015625 0 0  1.03125 0 0  1.046875 0 0  1.0625 0 0  1.078125 0 0  1.09375 0 0  1.109375 0 0  1.125 0 0  1.140625 0 0  1.15625 0 0  1.171875 0 0  1.1875 0 0  1.203125 0 0  1.21875 0 0  1.234375 0 0  1.25 0 0  1.265625 0 0  1.28125 0 0  1.296875 0 0  1.3125 0 0  1.328125 0 0  1.34375 0 0  1.359375 0 0  1.375 0 0  1.390625 0 0  1.40625 0 0  1.421875 0 0  1.4375 0 0  1.453125 0 0  1.46875 0 0  1.484375 0 0  1.515920751924515 0 0  1.531989369316721 0 0  1.54820720925872 0 0  1.564575665560501 0 0  1.581096138674279 0 0  1.597770029901263 0 0  1.614598783332311 0 0  1.631583831055205 0 0  1.64872661129721 0 0  1.666028606716533 0 0  1.683491276608443 0 0  1.701116134125304 0 0  1.718904673324128 0 0  1.736858414799339 0 0  1.754978895814663 0 0  1.773267661782904 0 0  1.791726281103402 0 0  1.810356325314689 0 0  1.8291593848892 0 0  1.848137076690385 0 0  1.867291007717254 0 0  1.886622833871288 0 0  1.90613418642363 0 0  1.925826753299799 0 0  1.945702199101513 0 0  1.96576223584749 0 0  1.986008569283268 0 0  2.006442931928877 0 0  2.02706707547783 0 0  2.047882750887917 0 0  2.06889175187935 0 0  2.090095860038271 0 0  2.111496891648636 0 0  2.133096679109554 0 0  2.154897066851056 0 0  2.176899916687499 0 0  2.199107102752146 0 0  2.22152053937028 0 0  2.244142122958061 0 0  2.266973806444078 0 0  2.290017523268154 0 0  2.313275249499252 0 0  2.336748971745516 0 0  2.360440702338606 0 0  2.384352453384031 0 0  2.408486280477412 0 0  2.432844240041185 0 0  2.457428414757088 0 0  2.482240901796653 0 0  2.507283830121838 0 0  2.532559332080812 0 0  2.558069568787417 0 0  2.583816724966441 0 0  2.60980299606584 0 0  2.636030600971886 0 0  2.662501790984011 0 0  2.689218818279327 0 0  2.716183964547616 0 0  2.743399548861297 0 0  2.77086788244719 0 0  2.798591312896326 0 0  2.826572223178268 0 0  2.854812990138617 0 0  2.883316031690714 0 0  2.912083780657189 0 0  2.941118704633482 0 0  2.970423276998917 0 0  3 0.02999999999994495 0  3 0.05999999999987042 0  3 0.089999999999783 0  3 0.119999999999701 0  3 0.149999999999619 0  3 0.179999999999692 0  3 0.2099999999997737 0  3 0.2399999999998511 0  3 0.2699999999999185 0  2.970138294777171 0.3 0  2.940375666438236 0.3 0  2.910711782853056 0.3 0  2.881146331305122 0.3 0  2.851678975030285 0.3 0  2.822309388626621 0.3 0  2.793037250095074 0.3 0  2.76386223529133 0.3 0  2.734784017903872 0.3 0  2.705802289276642 0.3 0  2.676916713794697 0.3 0  2.648126987654635 0.3 0  2.619432780406184 0.3 0  2.590833779385199 0.3 0  2.562329669847737 0.3 0  2.533920134950189 0.3 0  2.505604855727852 0.3 0  2.477383539822502 0.3 0  2.449255847639465 0.3 0  2.421221492569094 0.3 0  2.393280152486815 0.3 0  2.36543151914496 0.3 0  2.337675285481809 0.3 0  2.310011142385583 0.3 0  2.282438797441587 0.3 0  2.254957931061538 0.3 0  2.227568248063605 0.3 0  2.200269436651085 0.3 0  2.173061204949961 0.3 0  2.145943251515011 0.3 0  2.118915272469994 0.3 0  2.091976978084957 0.3 0  2.065128060700849 0.3 0  2.038368218849433 0.3 0  2.01169717777258 0.3 0  1.985114624111908 0.3 0  1.958620267850966 0.3 0  1.93221382054972 0.3 0  1.905894991850698 0.3 0  1.879663489459713 0.3 0  1.853519019126419 0.3 0  1.827461291053897 0.3 0  1.801490031354372 0.3 0  1.775604937580312 0.3 0  1.74980572560258 0.3 0  1.724092118631866 0.3 0  1.698463829173586 0.3 0  1.672920575782554 0.3 0  1.647462076974085 0.3 0  1.622088043536933 0.3 0  1.5967981978949 0.3 0  1.571592267767068 0.3 0  1.546469970305736 0.3 0  1.521431023814044 0.3 0  1.496475156230927 0.3 0  1.471602093687753 0.3 0  1.446811560490646 0.3 0  1.422103279101731 0.3 0  1.397476971708191 0.3 0  1.37293238939876 0.3 0  1.348469231419202 0.3 0  1.324087248732772 0.3 0  1.299786165921677 0.3 0  1.275565710847046 0.3 0  1.251425617644257 0.3 0  1.227365618676339 0.3 0  1.203385446174014 0.3 0  1.179484853067473 0.3 0  1.155663548773374 0.3 0  1.131921292279077 0.3 0  1.108257802159295 0.3 0  1.084672829009693 0.3 0  1.061166115303374 0.3 0  1.037737392995421 0.3 0  1.01438640299116 0.3 0  0.991112899770314 0.3 0  0.9679166155523955 0.3 0  0.944797284182564 0.3 0  0.921754678526042 0.3 0  0.8987885143602501 0.3 0  0.8758985548820624 0.3 0  0.8530845484099929 0.3 0  0.8303462351786988 0.3 0  0.8076833651172373 0.3 0  0.7850956864865304 0.3 0  0.7625829601354557 0.3 0  0.7401449314598274 0.3 0  0.717781337993959 0.3 0  0.6954919649675473 0.3 0  0.6732765357561226 0.3 0  0.6511348120768439 0.3 0  0.6290665642016573 0.3 0  0.6070715355430467 0.3 0  0.5851494825775325 0.3 0  0.5633001690203812 0.3 0  0.5415233562273221 0.3 0  0.5198187909431873 0.3 0  0.4981862401387795 0.3 0  0.4766254686134248 0.3 0  0.4551362360485234 0.3 0  0.4337182975262159 0.3 0  0.4123714223228037 0.3 0  0.3910953802377493 0.3 0  0.3698899313205595 0.3 0  0.3487548463710963 0.3 0  0.3276898864081783 0.3 0  0.3066948129116018 0.3 0  0.2857694003037476 0.3 0  0.2649134227095047 0.3 0  0.2441266417321288 0.3 0  0.2234088223399122 0.3 0  0.2027597568977288 0.3 0  0.1821792020676698 0.3 0  0.1616669305402443 0.3 0  0.1412227158799362 0.3 0  0.12084633013886 0.3 0  0.1005375673448281 0.3 0  0.08029618164595353 0.3 0  0.06012194778526769 0.3 0  0.04001466495039718 0.3 0  0.01997408913631205 0.3 0  0 0.2800000000000553 0  0 0.2600000000001105 0  0 0.2400000000001658 0  0 0.2200000000002211 0  0 0.2000000000002764 0  0 0.1800000000002244 0  0 0.1600000000001691 0  0 0.140000000000115 0  0 0.1200000000000564 0  1.13346801534201 0.01255848438672509 0  1.003577645172735 0.09351054173913405 0  0.9777559943702486 0.1034978156913738 0  0.9524533750752109 0.1040889939962738 0  0.9296242411226409 0.1041520033606139 0  0.9046110503652111 0.104409422380137 0  0.8777709649694228 0.1053360318797398 0  0.8483859145648608 0.1061007868330701 0  0.8162363822948977 0.1052777104363292 0  0.7893110024210437 0.1060761643971561 0  0.7587949382612539 0.1067265405088633 0  0.7280603867732535 0.1069398153264939 0  0.6947001989413015 0.1075609887579097 0  0.6590363283767549 0.1076715322596598 0  0.6210028614493155 0.1072970410408442 0  1.1953125 0.01353164693413185 0  1.258193991486058 0.01269648635163345 0  1.3201967268638 0.01407907077719561 0  1.383538555392096 0.01434101079053473 0  1.445312500000001 0.01303671693628424 0  1.508925448095738 0.01398525724792267 0  0.9939176689634008 0.1034638089837981 0  1.120967497222226 0.2796788492172345 0  1.572835902117391 0.01424132418857359 0  1.637573277451887 0.01212536916586023 0  1.709730776795181 0.01466855431023635 0  1.005631976950563 0.07074019818158772 0  1.784944696816299 0.01454708406461822 0  0.5805605730631225 0.1101465090472147 0  1.855621181165637 0.01550931272897607 0  0.5366111276616774 0.1096761308243709 0  1.935200147913231 0.01760344159641829 0  1.214922267975168 0.2799787705802257 0  1.31178773425331 0.2792
[...]
<PointData  Scalars="pressure"> 
<DataArray  type="Float64"  Name="pressure"  format="ascii">1.5588443219907097e-01  -1.6596511747354109e-01  -2.1272892304712426e-01  -1.5977719767314610e-01  -3.7972174124725068e-02  0.0000000000000000e+00  0.0000000000000000e+00  1.5589229507277821e-01  1.4995831035698956e-01  1.4412767134995111e-01  1.3839094578616715e-01  1.3274660831703408e-01  1.2719314355379299e-01  1.2172907136082851e-01  1.1635295779006743e-01  1.1106332816620201e-01  1.0585878725362238e-01  1.0073794510220707e-01  9.5699392509524389e-02  9.0741778385755714e-02  8.5863787943591535e-02  8.1064052375442827e-02  7.6341271359703075e-02  7.1694232483089829e-02  6.7121526974170648e-02  6.2621962863203581e-02  5.8194294111189968e-02  5.3837210288062883e-02  4.9549546737678682e-02  4.5330173461394084e-02  4.1177722618800428e-02  3.7091115139026742e-02  3.3069047151588850e-02  2.9110418705637933e-02  2.5214183998436831e-02  2.1379055511927116e-02  1.7603840294798695e-02  1.3887486776261764e-02  1.0228852804638920e-02  6.6267274854054916e-03  3.0801154152124651e-03  -4.1224195105496513e-04  -3.8513745304468187e-03  -7.2384795541852636e-03  -1.0574643972911479e-02  -1.3860539036207740e-02  -1.7098057815082522e-02  -2.0287798288453840e-02  -2.3430904149485277e-02  -2.6528689584408974e-02  -2.9582193801516572e-02  -3.2591842633436070e-02  -3.5559791386539620e-02  -3.8486508248196445e-02  -4.1373151543627321e-02  -4.4220894922633723e-02  -4.7030754650074412e-02  -4.9803814717596602e-02  -5.2541305881207853e-02  -5.5244187241205236e-02  -5.7913458166590881e-02  -6.0550105289052081e-02  -6.3155794266293627e-02  -6.5730893377640126e-02  -6.8276738780241389e-02  -7.0793994941831251e-02  -7.3284836228328126e-02  -7.5749664556852614e-02  -7.8188713141923355e-02  -8.0603842584771851e-02  -8.2996732543278343e-02  -8.5367013073339146e-02  -8.7716919844712041e-02  -9.0047194537518818e-02  -9.2358127079274058e-02  -9.4651427402565130e-02  -9.6928048767881178e-02  -9.9188986766111195e-02  -1.0143612458856037e-01  -1.0366956638571559e-01  -1.0588977587090309e-01  -1.0809751771594729e-01  -1.1029655534610223e-01  -1.1248589452484668e-01  -1.1466630427913049e-01  -1.1683986533544635e-01  -1.1900704520963545e-01  -1.2116892649598425e-01  -1.2332679600604439e-01  -1.2548279077930669e-01  -1.2763748441628456e-01  -1.2979124165094494e-01  -1.3194681468331576e-01  -1.3410534224160409e-01  -1.3626825180419527e-01  -1.3843731761298875e-01  -1.4061416903283827e-01  -1.4280098182520753e-01  -1.4500010420501214e-01  -1.4721424089815455e-01  -1.4944662092855340e-01  -1.5169927756046228e-01  -1.5397841054375438e-01  -1.5628282498992466e-01  -1.5869141169197837e-01  -1.6074611670610608e-01  -1.6535709686802402e-01  -1.6627297682455630e-01  -1.7061561572974895e-01  -1.6638035620558853e-01  -2.0115717801991759e-01  -1.8014619148585534e-01  -1.7361727230442028e-01  -1.6884567244056517e-01  -1.6561470908712808e-01  -1.6318590578136916e-01  -1.6136379493083813e-01  -1.6002599234487588e-01  -1.5922035217999400e-01  -1.5901980009990169e-01  -1.5942430677100833e-01  -1.6021894480201790e-01  -1.6059219233695637e-01  -1.6038236956142976e-01  -1.5970465166667039e-01  -1.5864923481394563e-01  -1.5725931493564516e-01  -1.5551918100915291e-01  -1.5341552010438048e-01  -1.5097732805742958e-01  -1.4822192509832072e-01  -1.4515315571816129e-01  -1.4178484601131339e-01  -1.3812826323642194e-01  -1.3419566132900865e-01  -1.3000790602144066e-01  -1.2557840317559249e-01  -1.2092007553007653e-01  -1.1605193885615915e-01  -1.1099365161432109e-01  -1.0575676549771075e-01  -1.0037190347196399e-01  -9.4858678925432413e-02  -8.9233728700264109e-02  -8.3529111264584871e-02  -7.7763872570684428e-02  -7.1969235716060509e-02  -6.6167972319151946e-02  -6.0383734549597078e-02  -5.4649073102588305e-02  -4.8985526312968111e-02  -4.3419648659717550e-02  -3.2568222396789734e-02  -2.7293182248743945e-02  -2.2156758024098142e-02  -1.7193054504816875e-02  -1.2428384940840097e-02  -7.8652083913410917e-03  -3.5284854915938165e-03  5.7685268290015655e-04  4.4021685764635884e-03  7.9733672811830025e-03  1.1291746460107945e-02  1.4337120910663687e-02  1.7112914184821835e-02  1.9627723265681837e-02  2.1886828985685478e-02  2.3896448168082864e-02  2.5673288384118413e-02  2.7219081691770456e-02  2.8548678572052937e-02  2.9693748191625020e-02  3.0643444149832780e-02  3.1428337218407432e-02  3.2062410063937549e-02  3.2553788412072036e-02  3.2924085123002517e-02  3.3177585653310554e-02  3.3344991123326929e-02  3.3417044121482532e-02  3.3414171761650312e-02  3.3341104854206473e-02  3.3205278247447761e-02  3.3015694641806009e-02  3.2781163863932893e-02  3.2505499311568049e-02  3.2189307614227475e-02  3.1839371636327572e-02  3.1456236241783522e-02  3.1042393823330041e-02  3.0598735429242366e-02  3.0125493781412729e-02  2.9622817347774930e-02  2.9090342871520014e-02  2.8526533105669646e-02  2.7931196340255243e-02  2.7301421885165465e-02  2.6635331428148570e-02  2.5933215823506460e-02  2.5189651862924684e-02  2.4402353809576446e-02  2.3574393970559861e-02  2.2696413248380756e-02  2.1774457348166281e-02  2.0798344440935455e-02  1.9776631459471471e-02  1.8701765201592547e-02  1.7570389256250134e-02  1.6393683437864126e-02  1.5157940048151106e-02  1.3875398917237431e-02  1.2540559356630326e-02  1.1153109173427071e-02  9.7133570778738573e-03  8.2239132098440061e-03  6.6876134294142067e-03  5.0953716594638390e-03  3.4641799809754133e-03  1.7780271735443748e-03  0.0000000000000000e+00  0.0000000000000000e+00  0.0000000000000000e+00  0.0000000000000000e+00  0.0000000000000000e+00  0.0000000000000000e+00  0.0000000000000000e+00  0.0000000000000000e+00  0.0000000000000000e+00  1.9333493794038610e-03  3.7398017533787900e-03  5.5187468195471738e-03  7.2438181957661732e-03  8.9185155626719647e-03  1.0541551888812440e-02  1.2112161471272049e-02  1.3628988474662209e-02  1.5089780155160541e-02  1.6493159610112381e-02  1.7836083531663802e-02  1.9117056808748072e-02  2.0331928564709851e-02  2.1478434486313640e-02  2.2552145570087258e-02  2.3546709301932617e-02  2.4461413863241549e-02  2.5284644395818567e-02  2.6010919277086555e-02  2.6633087314373922e-02  2.7143263207424811e-02  2.7533654409889287e-02  2.7797810803088050e-02  2.7924303196283289e-02  2.7910542779992050e-02  2.7745064003553491e-02  2.7425311788295281e-02  2.6940155341301352e-02  2.6284767790656211e-02  2.5456820970518487e-02  2.4446095011690636e-02  2.3247410509341662e-02  2.1875820995186705e-02  2.0317413249389599e-02  1.8546451933673911e-02  1.6603234877317838e-02  1.4464148127361952e-02  1.2130757363752052e-02  9.6042015693523792e-03  6.8922208178868946e-03  3.9862153124955012e-03  8.9958364330009345e-04  -2.3754345457809726e-03  -5.8283409955867315e-03  -9.4698531215006588e-03  -1.3285171800751189e-02  -1.7274683276646555e-02  -2.1430430920290892e-02  -2.5754952936446123e-02  -3.0235086386221719e-02  -3.4868578098385977e-02  -3.9644384335928387e-02  -4.4550352700805124e-02  -4.9578209461716392e-02  -5.4712697267269052e-02  -5.9932092893592630e-02  -6.5181750716891737e-02  -7.0501996550722257e-02  -7.5814294315472375e-02  -8.1062462897238147e-02  -8.6248569170729927e-02  -9.1304463159794069e-02  -9.6211693538373999e-02  -1.0086722384594214e-01  -1.0526590862623883e-01  -1.0930078374752109e-01  -1.1296025641821857e-01  -1.1613677709960303e-01  -1.1883381461979439e-01  -1.2092055238960253e-01  -1.2241037823233442e-01  -1.2322917258371932e-01  -1.2324336362288216e-01  -1.2261862324594207e-01  -1.2120925183453268e-01  -1.1901463057942824e-01  -1.1614466635411898e-01  -1.1261549038281583e-01  -1.0855250399004786e-01  -1.0402471816019560e-01  -9.9028868069130763e-02  -9.3708353640585468e-02  -8.8104243758547182e-02  -8.2316054765603247e-02  -7.6348300016099310e-02  -7.0231202136184917e-02  -6.4021442339553258e-02  -5.7733271580009925e-02  -5.1378717336663736e-02  -4.4983453974339151e-02  -3.8553059422567711e-02  -3.2107474626085430e-02  -2.5649908729259121e-02  -1.9183181693242263e-02  -1.2719750534943603e-02  -6.2609809831921173e-03  1.9179241330336574e-04  6.6347762924448975e-03  1.3064594751339550e-02  1.9479973458616420e-02  2.5880342189819838e-02  3.2264026919016017e-02  3.8630816293565066e-02  4.4978951869557963e-02  5.1308813414942048e-02  5.7619605373405783e-02  6.3911026635875293e-02  7.0182966813784137e-02  7.6435085086324572e-02  8.2667320345394715e-02  8.8879628823758605e-02  9.5071900298099518e-02  1.0124409979598595e-01  1.0739622179307771e-01  1.1352827274483382e-01  1.1964022353348686e-01  1.2573214574244723e-01  1.3180405559155878e-01  1.3785597865455396e-01  1.4388796876867890e-01  1.4990005757132807e-01  1.5589226470314280e-01  1.5589193791558698e-01  1.5589113978189573e-01  1.5588988687519764e-01  1.5588836498753969e-01  1.5588684152941165e-01  1.5588558600396435e-01  1.5588478255212232e-01  1.5588445693898323e-01  -1.5183132236401234e-01  -1.8444984187892197e-01  -1.6253787219195245e-01  -1.4837973867744139e-01  -1.3746681123205096e-01  -1.2664550622347318e-01  -1.1593910439896690e-01  -1.0495990336670477e-01  -9.3578594477845708e-02  -8.4430874628650163e-02  -7.4362760169344566e-02  -6.4462490481405649e-02  -5.3916613463017918e-02  -4.2806439002133642e-02  -3.1090477658775886e-02  -1.3981576391915493e-01  -1.2312696656406456e-01  -1.0321114375045473e-01  -8.0591999139265166e-02  -5.7795581971667148e-02  -3.5308226204177173e-02  -1.7568904957151835e-01  -1.2106096807546131e-01  -1.5206186383295213e-02  1.5609702188428306e-03  1.5315163169255207e-02  -1.6507810804668915e-01  2.4709267355639948e-02  -1.8737896309729739e-02  2.9802313886589674e-02  -5.3930047949941632e-03  3.2525347537030784e-02  -1.1056612121955646e-01  -9.3129088315430708e-02  3.3293834203501738e-02  -7.2730923542979026e-02  8.4278546696337688e-03  -4.6672323002983802e-02  3.2818690672041732e-02  2.3295028164001613e-02  -1.5746746488327684e-01  3.1581421914022655e-02  -2.3372651273548394e-02  -1.2246965847113644e-01  3.8702080689184203e-02  2.9826070912862403e-02  -6.9049642679680696e-04  5.6202653370885793e-02  8.1060919155040139e-03  2.7551909235142731e-02  1.5623448063924725e-02  7.3495302695982923e-02  -1.1726725254661395e-01  2.4809713006325063e-02  2.1078417674197745e-02  -1.0616672698634878e-01  2.4950847545789103e-02  2.1267390684866591e-02  -9.0895346307091479e-02  9.3696464636269391e-02  1.0771394395181266e-01  -1.1277980171131213e-02  1.8106332183776906e-02  1.4341535256835441e-02  2.7107650709110392e-02  -7.3490839703208757e-02  2.7753696540097166e-02  -1.5511118233098539e-01  -4.8619800045169248e-02  2.6790211005941478e-02  1.2516598818181857e-01  -2.8916241407987150e-02  1.0404808702537660e-02  2.3939313780142319e-02  -9.3693987643008198e-03  1.6439482961218180e-02  2.0837936500694324e-02  4.8144575712411861e-02  1.7106770034052903e-02  6.7103308605463763e-02  8.5879484032516412e-02  1.2827733224110696e-02  1.1747857189705302e-01  1.6215365120726252e-03  1.5030846612982998e-01  -1.6021925547040400e-01  8.1796892494261243e-03  5.7682003997866389e-03  1.3528101219634053e-01  -1.7159940194721721e-01  -1.5954925026983893e-01  -1.1687040761244603e-01  -6.0783337723031232e-02  2.9200097689454341e-03  2.8740245866448504e-02  1.3562031050699783e-01  -3.7380954494347793e-02  -6.1848059165106627e-02  -8.3032153483475646e-02  -1.0240582483595484e-01  8.3758393014331994e-02  2.7727954629626524e-02  6.4583876924926495e-02  9.8120572174084764e-02  2.5562926960579026e-02  2.3128872740211467e-02  4.6879721630587033e-02  2.6176504965340717e-02  2.8767020612633351e-02  3.1338901352631419e-02  3.0764920397273628e-02  3.2277111600743834e-02  3.3187116818273535e-02  3.3126027301780547e-02  -2.5099077343431021e-02  1.5743734142876355e-02  3.1461066085579935e-02  2.7584931869372682e-02  1.3504222594581164e-03  2.0622774205037990e-02  9.2535779414255996e-03  -5.9448206691452548e-03  1.3489726358804732e-03  -1.2582454997854927e-02  -2.4532666913172886e-02  1.5064803058592990e-01  -3.6714035372097810e-02  -4.8430096296510586e-02  -5.9249114537741968e-02  -6.9651396604428858e-02  -7.9474830528863685e-02  -8.8810695886873348e-02  -1.4630160168820699e-01  -1.0036149713157462e-01  -1.1145020906123174e-01  -1.2232872199351355e-01  -1.3204173622725826e-01  -1.3319845282523526e-01  -9.2391856217735518e-02  -1.1306351767541031e-01  -7.0160530820443170e-02  -4.6524835496149053e-02  -1.4403135127289801e-01  -1.6676837047358309e-01  1.7017892835654667e-03  1.5015186686676413e-01  4.5596143884425108e-03  -1.5998794929497773e-01  1.5089982441704242e-01  1.3748814495533005e-03  1.4679628219834737e-01  -1.5995256934235874e-01  -1.5961214280443517e-01  -1.5914680949803120e-01  -1.5965301468833532e-01  -1.5917029559638099e-01  -1.6000499230929530e-01  -1.5934032293181338e-01  -1.6045910329608634e-01  -1.5962355677724532e-01  -1.6077827240042811e-01  -1.5982380593855694e-01  -1.6069998043756928e-01  -1.5954917949467248e-01  -1.6006319418477322e-01  -1.5877310092198710e-01  -1.5897861869815866e-01  -1.5750955123602425e-01  -1.5751184865626108e-01  -1.5586915812333590e-01  -1.5550655952617420e-01  -1.5354424262783195e-01  -1.5722272444167082e-01  -1.5401327716557084e-01  -1.5129489118633718e-01  -1.5457579989840090e-01  -1.5659490507419208e-01  -1.5154423204363082e-01  -1.4867278169182599e-01  -1.4884785417237753e-01  -1.4560564182640212e-01  -1.4566567061577779e-01  -1.4210034695449680e-01  -1.4207623351734358e-01  -1.3843240556188893e-01  -1.3807583441141327e-01  -1.3370190636452345e-01  -1.3344802861411151e-01  -1.2924823055828327e-01  -1.2857346797282834e-01  -1.2421436158169993e-01  -1.2329723353005999e-01  -1.1885484736937210e-01  -1.1770781096131189e-01  -1.1323252594498963e-01  -1.1181510004234915e-01  -1.0737853404199978e-01  -1.0565469509627175e-01  -1.0131195705893872e-01  -9.9294117753275860e-02  -9.5112144048449657e-02  -9.2753204272789450e-02  -8.8820418160908909e-02  -8.5989762125218347e-02  -1.5290498939464844e-01  -1.5480652055250291e-01  -8.2459203188392630e-02  -7.9200343928915895e-02  -7.6100523962384412e-02  -7.2844315415041702e-02  -6.9854218115515107e-02  -6.6239405966492526e-02  -6.3717468818361225e-02  -5.9772219852608381e-02  -1.4762560428023488e-01  -5.7802702119369748e-02  -5.3433940136490464e-02  -5.1844881964826006e-02  -4.7247201385280622e-02  -4.6258276649372820e-02  -4.1349228560030905e-02  -1.5032246721512318e-01  -1.5245426996879291e-01  -1.6120231493181914e-01  -4.0852169352279720e-02  -3.5662514430366568e-02  -3.5730513792729415e-02  -3.0271713796445519e-02  -3.0874630479931244e-02  -2.5204691686145256e-02  -1.5803653616319827e-01  -2.6300526661224888e-02  -2.0429438860762303e-02  -1.3779680175992387e-01  -2.1992649863377400e-02  -1.5989607358352313e-02  -1.7978995579494728e-02  -1.1875230451976993e-02  -1.4174067021783816e-02  -8.0753344971635586e-03  -1.5813428859344755e-01  -1.2417742338941787e-01  -1.0704814859507522e-02  -4.5880631830827147e-03  -1.4685003541575808e-01  -1.4830236594861249e-01  -1.4508230836281316e-01  -1.0813178618717202e-01  -7.4237748260602169e-03  -1.2519272625520642e-03  -4.4838293108536032e-03  1.7333873583954740e-03  -1.6892649106655768e-03  4.3094242305435366e-03  -3.6287309786448563e-02  1.7004277932868470e-03  -1.9592635165321969e-02  -5.5538547404824792e-02  8.9925384616261570e-04  6.6686864499034852e-03  1.0088200286565726e-02  1.2279328695592067e-02  8.8765252138990388e-03  1.4252492499647135e-02  1.0960555435388930e-02  1.6092767150135630e-02  1.2839484920954458e-02  1.7688735140932811e-02  1.4560000804272204e-02  1.9161824056826982e-02  1.6181352902358767e-02  2.0453229448903671e-02  1.7585508805314957e-02  2.1634698907735672e-02  1.8992290892156805e-02  2.2812119905002450e-02  2.0247406424895066e-02  2.3775448581582231e-02  2.1431384402382035e-02  2.4610173250434856e-02  2.2376387741373384e-02  2.5371102367115827e-02  -7.5680221776083495e-02  -9.0981113698570870e-02  2.3344532682895033e-02  2.6010332554621072e-02  2.4261399140921854e-02  2.6620046725491116e-02  -1.4489459750461908e-01  -1.0961127619784466e-01  2.5076109468972676e-02  2.7119236372084285e-02  -1.2699444140966923e-01  -7.3579495893057054e-02  -1.4246681432126584e-01  -1.4353443088856321e-01  -1.5019929247501662e-01  -1.4430657362252647e-01  -1.4999671525085126e-01  -1.4439008092383326e-01  -1.5052028069128215e-01  -1.4395267042209295e-01  -1.4837152582822158e-01  -1.4246520415379138e-01  -1.4702715269344008e-01  -1.4052209480210567e-01  -1.4354262037380705e-01  -1.3784070768657317e-01  -1.4012773106969878e-01  -1.3489612144449889e-01  -1.3649400787271329e-01  -1.3161200293785999e-01  -1.3273487273067858e-01  -1.2818992554645192e-01  -1.2889162538539695e-01  -1.2463277233109821e-01  -1.2503709814604716e-01  -1.2102629269808046e-01  -1.2117653298985791e-01  -1.1742822998819044e-01  -1.1699483754970830e-01  -1.1352756464157614e-01  -1.1359421456751695e-01  -1.0998711001051678e-01  -1.0982750532838038e-01  -1.0637605089072438e-01  -1.0622570761198280e-01  -1.0280664641520747e-01  -1.0237793016495425e-01  -9.9168989213167025e-02  -1.3238298488579839e-01  -1.0957047846032361e-01  -1.2349478298517143e-01  -9.8664251646588513e-02  -9.5452070311420778e-02  -9.5708821688350890e-02  -9.2174801127810055e-02  -9.1694283883433689e-02  -8.8560070673242508e-02  -8.7890809368394857e-02  -8.4885890313979320e-02  -8.4102317457628223e-02  -8.1150557158181896e-02  -8.8302939811295042e-02  -1.5529994069146869e-01  -1.4910071307483616e-01  -8.0374934966964268e-02  -7.7359928741496581e-02  -7.8089254316320245e-02  -7.4308980878322939e-02  -7.3545753638697101e-02  -7.0549140152971840e-02  -6.9674249709064523e-02  -6.6761914806199502e-02  -1.4140795965805572e-01  -7.1048876381873516e-02  -6.5826017536155426e-02  -6.2988951866849593e-02  -1.3308145256951723e-01  -6.2092173994286882e-02  -5.9158862402307069e-02  -6.0326211397055060e-02  -5.6177982236318591e-02  -5.5220047850097972e-02  -5.2130535249024251e-02  -5.3044564272941269e-02  -4.9002136457775437e-02  -4.8100458552672781e-02  -4.4967467171095857e-02  -4.4054447143750147e-02  -4.0838784234546385e-02  -4.1776044932388331e-02  -3.7652618816337920e-02  -3.6683403721827434e-02  -3.3523774719637592e-02  -3.2591196674445357e-02  -2.9411852479536860e-02  -1.3911587947828052e-01  -1.0959010031517043e-01  -1.2478343434821826e-01  -2.8571567829632660e-02  -2.5331607499899694e-02  -2.6183551035840781e-02  -2.1951080909643355e-02  -2.1102867958335662e-02  -1.7724179170088079e-02  -2.2801690092057833e-02  2.5722355024500498e-02  2.7534355072145147e-02  2.6308684719826742e-02  2.7882113707215245e-02  2.6829184277974375e-02  2.8159299436308148e-02  -9.1050939647789125e-02  -4.6003945875541921e-02  -1.6103217572449388e-01  -1.6842692844802824e-02  -1.3532039905646227e-02  -1.0174526392099739e-01  2.3516503217362483e-02  2.7407190005048012e-02  1.5170147657867020e-02  2.7258216275348770e-02  2.8356405626813914e-02  2.9342473415471783e-02  2.9320819821400491e-02  2.8479431355276398e-02  2.9247053562956187e-02  2.8534318174647841e-02  2.9114767845206019e-02  2.8507083044149430e-02  2.8917322255092141e-02  2.8406658841919105e-02  2.8661512200488504e-02  2.8222387106628007e-02  2.8334816311535421e-02  2.7961730482777399e-02  2.7948376746323080e-02  2.7626727201578220e-02  2.7500414488197872e-02  2.7221052995285482e-02  2.6992525865869556e-02  2.6734014319423096e-02  2.6410299990483211e-02  2.6165170666212628e-02  2.5775802952256358e-02  2.5519490061152186e-02  2.5054664068093927e-02  2.4813121718392422e-02  2.4292350192679966e-02  2.4013113895515192e-02  2.3444695690464614e-02  2.3158013079484910e-02  2.2548872819119721e-02  2.9051878399564732e-02  -3.8657123509404152e-02  -7.2705435027909784e-02  -1.2527180528310075e-02  -9.2301341927169267e-03  -1.0225424393318187e-02  -5.7728953641474111e-03  -6.8123723821644075e-03  -2.2571087287610986e-03  -1.3367885365546592e-03  2.1981817282037894e-03  3.2391573052627555e-03  6.7460407362918860e-03  5.8024277812225309e-03  1.0338042869178981e-02  1.1140302397117463e-02  1.4838787188583787e-02  1.5627780534070924e-0