<?xml version="1.0"?>
<VTKFile type="UnstructuredGrid"  version="0.1"  >
<UnstructuredGrid>
<Piece  NumberOfPoints="2886" NumberOfCells="5412">
<Points>
<DataArray  type="Float64"  NumberOfComponents="3"  format="ascii">0 0.1 0  0.98 0.1 0  1 0.1 0  1 0 0  1.5 0 0  3 0 0  3 0.3 0  0 0.3 0  0.01975375321854102 0.1 0  0.03918897458218897 0.1 0  0.05831079002627837 0.1 0  0.07712425666319796 0.1 0  0.0956343475259058 0.1 0  0.1138459546796227 0.1 0  0.1317638870668193 0.1 0  0.1493928840275937 0.1 0  0.1667376092280033 0.1 0  0.1838026357802664 0.1 0  0.2005924801287244 0.1 0  0.2171115811543574 0.1 0  0.2333643037107681 0.1 0  0.2493549444060462 0.1 0  0.2650877293306821 0.1 0  0.2805668058011438 0.1 0  0.2957962848620976 0.1 0  0.3107801766802674 0.1 0  0.3255224447361181 0.1 0  0.3400269848175519 0.1 0  0.3542976327080778 0.1 0  0.3683381609158136 0.1 0  0.3821522744564845 0.1 0  0.3957436316838916 0.1 0  0.4091158196437086 0.1 0  0.4222723742184605 0.1 0  0.4352167733293057 0.1 0  0.4479524348643424 0.1 0  0.4604827295467524 0.1 0  0.4728109659990664 0.1 0  0.4849404035409129 0.1 0  0.4968742471455402 0.1 0  0.508615651843175 0.1 0  0.520167721130924 0.1 0  0.5315335063628542 0.1 0  0.5427160117228604 0.1 0  0.5537181940261912 0.1 0  0.564542961924507 0.1 0  0.575193173270606 0.1 0  0.5856716438765114 0.1 0  0.5959811458006617 0.1 0  0.6061243988680743 0.1 0  0.6161040893285659 0.1 0  0.6259228503970299 0.1 0  0.6355832809287655 0.1 0  0.6450879281079505 0.1 0  0.6544393102991295 0.1 0  0.663639896558931 0.1 0  0.6726921201956305 0.1 0  0.6815983691630338 0.1 0  0.6903610031396646 0.1 0  0.6989823343332418 0.1 0  0.7074646404270378 0.1 0  0.7158101645005117 0.1 0  0.7240211149852543 0.1 0  0.7320996585612525 0.1 0  0.7400479319727645 0.1 0  0.7478680336617921 0.1 0  0.755562036504958 0.1 0  0.7631319665092091 0.1 0  0.7705798279317605 0.1 0  0.777907588066146 0.1 0  0.7851171851013118 0.1 0  0.7922105226004981 0.1 0  0.7991894774550319 0.1 0  0.8060558928136696 0.1 0  0.812811583201334 0.1 0  0.8194583352091183 0.1 0  0.8259979035038147 0.1 0  0.8324320194413813 0.1 0  0.8387623808293405 0.1 0  0.8449906627004957 0.1 0  0.8511185094880469 0.1 0  0.8571475426008311 0.1 0  0.8630793533568246 0.1 0  0.8689155114558531 0.1 0  0.8746575581239063 0.1 0  0.8803070109173519 0.1 0  0.885865363938836 0.1 0  0.8913340851680313 0.1 0  0.8967146206523592 0.1 0  0.9020083930695622 0.1 0  0.9072167995950768 0.1 0  0.9123412183131177 0.1 0  0.9173830029719022 0.1 0  0.9223434865647732 0.1 0  0.9272239785872722 0.1 0  0.9320257720706087 0.1 0  0.9367501330378739 0.1 0  0.9413983102716995 0.1 0  0.9459715351562933 0.1 0  0.9504710127113115 0.1 0  0.9548979346500661 0.1 0  0.9592534708344373 0.1 0  0.9635387708980176 0.1 0  0.9677549682252325 0.1 0  0.971903177251235 0.1 0  0.9759844952956497 0.1 0  0.9840000000000086 0.1 0  0.987999999999974 0.1 0  0.9919999999999393 0.1 0  0.9959999999999913 0.1 0  1 0.09591793123533533 0  1 0.09133596463859224 0  1 0.08619288104391448 0  1 0.08041996484521211 0  1 0.07394008421771697 0  1 0.06666666567302955 0  1 0.05850252932209174 0  1 0.04933859630113544 0  1 0.03905242821848202 0  1 0.02750659386753798 0  1 0.01454683679239736 0  1.015625 0 0  1.03125 0 0  1.046875 0 0  1.0625 0 0  1.078125 0 0  1.09375 0 0  1.109375 0 0  1.125 0 0  1.140625 0 0  1.15625 0 0  1.171875 0 0  1.1875 0 0  1.203125 0 0  1.21875 0 0  1.234375 0 0  1.25 0 0  1.265625 0 0  1.28125 0 0  1.296875 0 0  1.3125 0 0  1.328125 0 0  1.34375 0 0  1.359375 0 0  1.375 0 0  1.390625 0 0  1.40625 0 0  1.421875 0 0  1.4375 0 0  1.453125 0 0  1.46875 0 0  1.484375 0 0  1.515920751924515 0 0  1.531989369316721 0 0  1.54820720925872 0 0  1.564575665560501 0 0  1.581096138674279 0 0  1.597770029901263 0 0  1.614598783332311 0 0  1.631583831055205 0 0  1.64872661129721 0 0  1.666028606716533 0 0  1.683491276608443 0 0  1.701116134125304 0 0  1.718904673324128 0 0  1.736858414799339 0 0  1.754978895814663 0 0  1.773267661782904 0 0  1.791726281103402 0 0  1.810356325314689 0 0  1.8291593848892 0 0  1.848137076690385 0 0  1.867291007717254 0 0  1.886622833871288 0 0  1.90613418642363 0 0  1.925826753299799 0 0  1.945702199101513 0 0  1.96576223584749 0 0  1.986008569283268 0 0  2.006442931928877 0 0  2.02706707547783 0 0  2.047882750887917 0 0  2.06889175187935 0 0  2.090095860038271 0 0  2.111496891648636 0 0  2.133096679109554 0 0  2.154897066851056 0 0  2.176899916687499 0 0  2.199107102752146 0 0  2.22152053937028 0 0  2.244142122958061 0 0  2.266973806444078 0 0  2.290017523268154 0 0  2.313275249499252 0 0  2.336748971745516 0 0  2.360440702338606 0 0  2.384352453384031 0 0  2.408486280477412 0 0  2.432844240041185 0 0  2.457428414757088 0 0  2.482240901796653 0 0  2.507283830121838 0 0  2.532559332080812 0 0  2.558069568787417 0 0  2.583816724966441 0 0  2.60980299606584 0 0  2.636030600971886 0 0  2.662501790984011 0 0  2.689218818279327 0 0  2.716183964547616 0 0  2.743399548861297 0 0  2.77086788244719 0 0  2.798591312896326 0 0  2.826572223178268 0 0  2.854812990138617 0 0  2.883316031690714 0 0  2.912083780657189 0 0  2.941118704633482 0 0  2.970423276998917 0 0  3 0.02999999999994495 0  3 0.05999999999987042 0  3 0.089999999999783 0  3 0.119999999999701 0  3 0.149999999999619 0  3 0.179999999999692 0  3 0.2099999999997737 0  3 0.2399999999998511 0  3 0.2699999999999185 0  2.970138294777171 0.3 0  2.940375666438236 0.3 0  2.910711782853056 0.3 0  2.881146331305122 0.3 0  2.851678975030285 0.3 0  2.822309388626621 0.3 0  2.793037250095074 0.3 0  2.76386223529133 0.3 0  2.734784017903872 0.3 0  2.705802289276642 0.3 0  2.676916713794697 0.3 0  2.648126987654635 0.3 0  2.619432780406184 0.3 0  2.590833779385199 0.3 0  2.562329669847737 0.3 0  2.533920134950189 0.3 0  2.505604855727852 0.3 0  2.477383539822502 0.3 0  2.449255847639465 0.3 0  2.421221492569094 0.3 0  2.393280152486815 0.3 0  2.36543151914496 0.3 0  2.337675285481809 0.3 0  2.310011142385583 0.3 0  2.282438797441587 0.3 0  2.254957931061538 0.3 0  2.227568248063605 0.3 0  2.200269436651085 0.3 0  2.173061204949961 0.3 0  2.145943251515011 0.3 0  2.118915272469994 0.3 0  2.091976978084957 0.3 0  2.065128060700849 0.3 0  2.038368218849433 0.3 0  2.01169717777258 0.3 0  1.985114624111908 0.3 0  1.958620267850966 0.3 0  1.93221382054972 0.3 0  1.905894991850698 0.3 0  1.879663489459713 0.3 0  1.853519019126419 0.3 0  1.827461291053897 0.3 0  1.801490031354372 0.3 0  1.775604937580312 0.3 0  1.74980572560258 0.3 0  1.724092118631866 0.3 0  1.698463829173586 0.3 0  1.672920575782554 0.3 0  1.647462076974085 0.3 0  1.622088043536933 0.3 0  1.5967981978949 0.3 0  1.571592267767068 0.3 0  1.546469970305736 0.3 0  1.521431023814044 0.3 0  1.496475156230927 0.3 0  1.471602093687753 0.3 0  1.446811560490646 0.3 0  1.422103279101731 0.3 0  1.397476971708191 0.3 0  1.37293238939876 0.3 0  1.348469231419202 0.3 0  1.324087248732772 0.3 0  1.299786165921677 0.3 0  1.275565710847046 0.3 0  1.251425617644257 0.3 0  1.227365618676339 0.3 0  1.203385446174014 0.3 0  1.179484853067473 0.3 0  1.155663548773374 0.3 0  1.131921292279077 0.3 0  1.108257802159295 0.3 0  1.084672829009693 0.3 0  1.061166115303374 0.3 0  1.037737392995421 0.3 0  1.01438640299116 0.3 0  0.991112899770314 0.3 0  0.9679166155523955 0.3 0  0.944797284182564 0.3 0  0.921754678526042 0.3 0  0.8987885143602501 0.3 0  0.8758985548820624 0.3 0  0.8530845484099929 0.3 0  0.8303462351786988 0.3 0  0.8076833651172373 0.3 0  0.7850956864865304 0.3 0  0.7625829601354557 0.3 0  0.7401449314598274 0.3 0  0.717781337993959 0.3 0  0.6954919649675473 0.3 0  0.6732765357561226 0.3 0  0.6511348120768439 0.3 0  0.6290665642016573 0.3 0  0.6070715355430467 0.3 0  0.5851494825775325 0.3 0  0.5633001690203812 0.3 0  0.5415233562273221 0.3 0  0.5198187909431873 0.3 0  0.4981862401387795 0.3 0  0.4766254686134248 0.3 0  0.4551362360485234 0.3 0  0.4337182975262159 0.3 0  0.4123714223228037 0.3 0  0.3910953802377493 0.3 0  0.3698899313205595 0.3 0  0.3487548463710963 0.3 0  0.3276898864081783 0.3 0  0.3066948129116018 0.3 0  0.2857694003037476 0.3 0  0.2649134227095047 0.3 0  0.2441266417321288 0.3 0  0.2234088223399122 0.3 0  0.2027597568977288 0.3 0  0.1821792020676698 0.3 0  0.1616669305402443 0.3 0  0.1412227158799362 0.3 0  0.12084633013886 0.3 0  0.1005375673448281 0.3 0  0.08029618164595353 0.3 0  0.06012194778526769 0.3 0  0.04001466495039718 0.3 0  0.01997408913631205 0.3 0  0 0.2800000000000553 0  0 0.2600000000001105 0  0 0.2400000000001658 0  0 0.2200000000002211 0  0 0.2000000000002764 0  0 0.1800000000002244 0  0 0.1600000000001691 0  0 0.140000000000115 0  0 0.1200000000000564 0  1.13346801534201 0.01255848438672509 0  1.003577645172735 0.09351054173913405 0  0.9777559943702486 0.1034978156913738 0  0.9524533750752109 0.1040889939962738 0  0.9296242411226409 0.1041520033606139 0  0.9046110503652111 0.104409422380137 0  0.8777709649694228 0.1053360318797398 0  0.8483859145648608 0.1061007868330701 0  0.8162363822948977 0.1052777104363292 0  0.7893110024210437 0.1060761643971561 0  0.7587949382612539 0.1067265405088633 0  0.7280603867732535 0.1069398153264939 0  0.6947001989413015 0.1075609887579097 0  0.6590363283767549 0.1076715322596598 0  0.6210028614493155 0.1072970410408442 0  1.1953125 0.01353164693413185 0  1.258193991486058 0.01269648635163345 0  1.3201967268638 0.01407907077719561 0  1.383538555392096 0.01434101079053473 0  1.445312500000001 0.01303671693628424 0  1.508925448095738 0.01398525724792267 0  0.9939176689634008 0.1034638089837981 0  1.120967497222226 0.2796788492172345 0  1.572835902117391 0.01424132418857359 0  1.637573277451887 0.01212536916586023 0  1.709730776795181 0.01466855431023635 0  1.005631976950563 0.07074019818158772 0  1.784944696816299 0.01454708406461822 0  0.5805605730631225 0.1101465090472147 0  1.855621181165637 0.01550931272897607 0  0.5366111276616774 0.1096761308243709 0  1.935200147913231 0.01760344159641829 0  1.214922267975168 0.2799787705802257 0  1.31178773425331 0.2792
[...]
<PointData  Scalars="pressure"> 
<DataArray  type="Float64"  Name="pressure"  format="ascii">1.6206158302354362e-01  -1.6477925162566259e-01  -2.2001405312818836e-01  -1.6336655075069570e-01  -4.3698522942763718e-02  0.0000000000000000e+00  0.0000000000000000e+00  1.6206792857115332e-01  1.5613546036517384e-01  1.5030483524212773e-01  1.4456814431583523e-01  1.3892386374382920e-01  1.3337048264787540e-01  1.2790652316882528e-01  1.2253054972474625e-01  1.1724109764277628e-01  1.1203677091976427e-01  1.0691618307298641e-01  1.0187793496699588e-01  9.6920679294909565e-02  9.2043102241561273e-02  8.7243849974433255e-02  8.2521628175072248e-02  7.7875218652115691e-02  7.3303245469432649e-02  6.8804514572661291e-02  6.4377790566531895e-02  6.0021789619828701e-02  5.5735349293566938e-02  5.1517339929468810e-02  4.7366441061650312e-02  4.3281570438112829e-02  3.9261466794050667e-02  3.5305036497817591e-02  3.1411235712766529e-02  2.7578824638960223e-02  2.3806644645581802e-02  2.0093655027369921e-02  1.6438744220707641e-02  1.2840747922007362e-02  9.2986791336800538e-03  5.8113409892053261e-03  2.3777250213612225e-03  -1.0033116419094481e-03  -4.3328200182385828e-03  -7.6115050129400485e-03  -1.0841069327234320e-02  -1.4022159532763229e-02  -1.7155854349921743e-02  -2.0243381747687028e-02  -2.3285737070428431e-02  -2.6283406237555332e-02  -2.9238296555100941e-02  -3.2150927927570572e-02  -3.5022382441800490e-02  -3.7853752240996089e-02  -4.0646001226767536e-02  -4.3400142433922102e-02  -4.6117307223642989e-02  -4.8798405626546026e-02  -5.1444375247464473e-02  -5.4056140382357405e-02  -5.6635177838507911e-02  -5.9181904837219718e-02  -6.1697523585747052e-02  -6.4182691072105391e-02  -6.6639270864502387e-02  -6.9067716903851870e-02  -7.1468312693377473e-02  -7.3842670173245098e-02  -7.6192253372894383e-02  -7.8516861120325965e-02  -8.0818386600981743e-02  -8.3097536348024970e-02  -8.5354621198277372e-02  -8.7591100864439053e-02  -8.9807827666979839e-02  -9.2005670114812838e-02  -9.4186218293582480e-02  -9.6349594625765228e-02  -9.8496272385785261e-02  -1.0062685552801241e-01  -1.0274441422430115e-01  -1.0484818964384802e-01  -1.0693879722541236e-01  -1.0901790300553195e-01  -1.1108585472966190e-01  -1.1314348632845812e-01  -1.1519173682096906e-01  -1.1723220925219899e-01  -1.1926527695914550e-01  -1.2129105431303497e-01  -1.2331148067211554e-01  -1.2532719644148960e-01  -1.2733900698458633e-01  -1.2934784674830788e-01  -1.3135448478609726e-01  -1.3335995908364337e-01  -1.3536523916603629e-01  -1.3737131448126486e-01  -1.3937877072689073e-01  -1.4138857895454895e-01  -1.4339662427479982e-01  -1.4537924604071029e-01  -1.4772676009119837e-01  -1.4798205510553106e-01  -1.5054834762693872e-01  -1.4377265854592833e-01  -1.4937867746787525e-01  -1.4874625488122323e-01  -2.0590356305197333e-01  -1.8388688402917280e-01  -1.7722285601199414e-01  -1.7240059813269940e-01  -1.6915701232577737e-01  -1.6672785754705874e-01  -1.6491217992473020e-01  -1.6358603438792413e-01  -1.6279345014258875e-01  -1.6260465213332145e-01  -1.6301478954547299e-01  -1.6380696515973953e-01  -1.6418523159482737e-01  -1.6398539253563008e-01  -1.6332284984737300e-01  -1.6228871293039818e-01  -1.6092720454271403e-01  -1.5922394210841423e-01  -1.5716657093994230e-01  -1.5478411577682560e-01  -1.5209384088230288e-01  -1.4909970958017832e-01  -1.4581519765698442e-01  -1.4225105140017585e-01  -1.3841897048723364e-01  -1.3433874087035608e-01  -1.3002267337649276e-01  -1.2548255503480454e-01  -1.2073596357082159e-01  -1.1580095769367911e-01  -1.1068716832274902e-01  -1.0542392097823854e-01  -1.0002820035558406e-01  -9.4515156967092520e-02  -8.8914509361022437e-02  -8.3244036411225658e-02  -7.7531844454024196e-02  -7.1799771454214220e-02  -6.6069708938254285e-02  -6.0372619926408529e-02  -5.4728859685414410e-02  -4.9164014588675344e-02  -3.8256018745283907e-02  -3.2921609112089141e-02  -2.7704648507779272e-02  -2.2639531583437233e-02  -1.7753859190180878e-02  -1.3049410611952150e-02  -8.5550370387529329e-03  -4.2763977589638071e-03  -2.6234447247303576e-04  3.5096513436908890e-03  7.0375320764252645e-03  1.0299394271058429e-02  1.3296535666368545e-02  1.6034619815546918e-02  1.8516539957407117e-02  2.0746526801017462e-02  2.2738995477145998e-02  2.4493604451274801e-02  2.6024485484476292e-02  2.7361378022799979e-02  2.8492442724567250e-02  2.9447695300592582e-02  3.0240561427449887e-02  3.0879148391445004e-02  3.1384838039821214e-02  3.1762236137553405e-02  3.2043012918096012e-02  3.2217500490882171e-02  3.2307253701163482e-02  3.2317358003095563e-02  3.2255914256011937e-02  3.2132784418615321e-02  3.1957643583072612e-02  3.1734895353491138e-02  3.1465421569675751e-02  3.1156844706722066e-02  3.0810019147200850e-02  3.0427936331336742e-02  3.0011850488182987e-02  2.9562327809923291e-02  2.9079888447258399e-02  2.8564576974512240e-02  2.8015209899377291e-02  2.7432226944938114e-02  2.6813123954028462e-02  2.6156618795697438e-02  2.5463961898926656e-02  2.4730246376236494e-02  2.3953512863613323e-02  2.3138261852872637e-02  2.2274840942871556e-02  2.1370441705776125e-02  2.0414454594859473e-02  1.9415861064293726e-02  1.8366769197979103e-02  1.7263416926551780e-02  1.6116309607010305e-02  1.4911173029571565e-02  1.3659458380731444e-02  1.2354995560218955e-02  1.0996760521588045e-02  9.5847035294394280e-03  8.1209334671439367e-03  6.6086796292611468e-03  5.0384649083636580e-03  3.4278694266411292e-03  1.7606822409799269e-03  0.0000000000000000e+00  0.0000000000000000e+00  0.0000000000000000e+00  0.0000000000000000e+00  0.0000000000000000e+00  0.0000000000000000e+00  0.0000000000000000e+00  0.0000000000000000e+00  0.0000000000000000e+00  1.9095267357008938e-03  3.6909664242541973e-03  5.4443228003655791e-03  7.1440660748645340e-03  8.7939675958787263e-03  1.0392666933785636e-02  1.1939164294971463e-02  1.3431680594588016e-02  1.4867278929482565e-02  1.6243661821280200e-02  1.7556743395841165e-02  1.8803950642464311e-02  1.9980135131174220e-02  2.1082213776904529e-02  2.2105290478848870e-02  2.3042649009319731e-02  2.3893902086126437e-02  2.4647790184585100e-02  2.5299610528387997e-02  2.5843175612486391e-02  2.6271564024198037e-02  2.6578176177528730e-02  2.6757281187724895e-02  2.6798054924451642e-02  2.6699252939086399e-02  2.6448824978911059e-02  2.6044881373707234e-02  2.5476113138392105e-02  2.4737490619249802e-02  2.3826516676836402e-02  2.2732489795309556e-02  2.1450095421581963e-02  1.9994508799737031e-02  1.8351618846789812e-02  1.6495251064661230e-02  1.4465685081158130e-02  1.2240397468362078e-02  9.8196223401392311e-03  7.2052885374636203e-03  4.4048610916683096e-03  1.4096678181137823e-03  -1.7662501151249959e-03  -5.1316513328501538e-03  -8.6756719827952924e-03  -1.2409743670973644e-02  -1.6317015997652833e-02  -2.0399221274468578e-02  -2.4646093128345807e-02  -2.9061443164916038e-02  -3.3630249844932902e-02  -3.8348992799652079e-02  -4.3205537391096074e-02  -4.8185108513747681e-02  -5.3278397608622921e-02  -5.8469019561870408e-02  -6.3731362731069108e-02  -6.9002010322594218e-02  -7.4332592261564870e-02  -7.9632023638934235e-02  -8.4837348218484834e-02  -8.9953998120599454e-02  -9.4907173015295526e-02  -9.9676201258318095e-02  -1.0415252449986868e-01  -1.0832786902960245e-01  -1.1209017593609054e-01  -1.1542696109186919e-01  -1.1822447114667911e-01  -1.2048773131177569e-01  -1.2208343224995837e-01  -1.2302901704622167e-01  -1.2325648877401102e-01  -1.2264541709245363e-01  -1.2137323321836366e-01  -1.1932142699103858e-01  -1.1650939285357638e-01  -1.1306454837134101e-01  -1.0902089183524065e-01  -1.0450461280305001e-01  -9.9585926771204453e-02  -9.4269587766675642e-02  -8.8682684900719566e-02  -8.2862541061537273e-02  -7.6893121393868738e-02  -7.0779125773489021e-02  -6.4546005084004390e-02  -5.8240799881202947e-02  -5.1875273881913465e-02  -4.5459445487632526e-02  -3.9014380860117728e-02  -3.2544659803908853e-02  -2.6066604406199009e-02  -1.9582817119186084e-02  -1.3095604463818139e-02  -6.6151250432792061e-03  -1.4247291108144305e-04  6.3212693288224224e-03  1.2773023954589261e-02  1.9210048978255262e-02  2.5631325839864390e-02  3.2036399833257678e-02  3.8423922525789085e-02  4.4793732776665610e-02  5.1144416264280131e-02  5.7476292510778654e-02  6.3788729546138873e-02  7.0081495044211337e-02  7.6354512554876977e-02  8.2607517526294430e-02  8.8840474216195051e-02  9.5053360014220489e-02  1.0124609720184945e-01  1.0741867123014349e-01  1.1357109038769089e-01  1.1970337276412037e-01  1.2581550769702340e-01  1.3190756491487735e-01  1.3797957145625991e-01  1.4403156091324359e-01  1.5006358829377756e-01  1.5607569316069808e-01  1.6206790404335331e-01  1.6206764024934642e-01  1.6206699609725209e-01  1.6206598500191569e-01  1.6206475688750657e-01  1.6206352750610309e-01  1.6206251429773988e-01  1.6206186585310003e-01  1.6206160300568082e-01  -1.5561360145851674e-01  -1.8862523921672142e-01  -1.5135607678401941e-01  -1.3838410555429295e-01  -1.2842834778033810e-01  -1.1831494462936830e-01  -1.0814400395321938e-01  -9.7587235348799414e-02  -8.6538273607732877e-02  -7.7593102261630117e-02  -6.7696839422351496e-02  -5.7924046066348371e-02  -4.7478816759414851e-02  -3.6445507060478326e-02  -2.4786766396081340e-02  -1.4388902575279947e-01  -1.2762482544869755e-01  -1.0818694355873956e-01  -8.6010378819953742e-02  -6.3482316693946647e-02  -4.0995788355586239e-02  -1.6299183878197268e-01  -1.2200500802800590e-01  -2.0579956106547684e-02  -3.2205748977926179e-03  1.1383041649765648e-02  -1.6865104435222736e-01  2.1688163018936227e-02  -1.2475341449991474e-02  2.7529379537171168e-02  8.3954766911173016e-04  3.0900980588504098e-02  -1.1319505250695998e-01  -9.6652465116071062e-02  3.2145297892923974e-02  -7.6538184212705057e-02  1.4640243857471522e-02  -5.0317643015798122e-02  3.1952034182124063e-02  2.9493744093899668e-02  -1.6112498881245030e-01  3.0908982382409238e-02  -2.6612286837286749e-02  -1.2154293547932311e-01  4.4892032484180514e-02  2.9268083536607828e-02  -3.3847641090127929e-03  6.2386745876024906e-02  5.6724400810093754e-03  2.7056866105699205e-02  1.3460302752229496e-02  7.9676106893248361e-02  -1.1451353393895240e-01  2.4353794315908388e-02  1.9165784962587092e-02  -1.0194898885042671e-01  2.3291750598074489e-02  2.0871778439636116e-02  -8.5774697790243049e-02  9.9875187763233619e-02  1.1389187293348572e-01  -1.4246206057671936e-02  1.7783820540106764e-02  1.4112656191674738e-02  2.5691938460420009e-02  -6.7874003195646015e-02  2.6676325552503793e-02  -1.4436862072283660e-01  -4.2682327358172442e-02  2.5958461914850659e-02  1.3134338002842655e-01  -2.2863978193467957e-02  1.0261758259198384e-02  2.3400934918055647e-02  -3.2583514364998025e-03  2.2587724137721563e-02  2.0463140132862490e-02  5.4310911841038562e-02  1.6841805230611052e-02  7.3274268752079375e-02  9.2052896427505096e-02  1.2641520708464502e-02  1.2365377667852689e-01  1.5993512582395005e-03  1.5648472208552128e-01  -1.6379241423363317e-01  8.0641485298502211e-03  5.7014392091513377e-03  1.4145655982546898e-01  -1.7526154639153713e-01  -1.6316077185364949e-01  -1.1876163092277021e-01  -5.4967076787583093e-02  9.0527299697460480e-03  3.4897727274386114e-02  1.4179754411160617e-01  -4.0887486030705480e-02  -6.5638014050859242e-02  -8.6761126351643431e-02  -1.0557834630699713e-01  8.9937962164604104e-02  2.6476002772655959e-02  7.0766147055239717e-02  1.0429492709377514e-01  2.4886805472483658e-02  2.2698392551281941e-02  5.3066525973140731e-02  2.5702412130753024e-02  2.8245145108105003e-02  3.7532521133772839e-02  3.0157767497952775e-02  3.1519452509123767e-02  3.2179774199729616e-02  3.1769067447983190e-02  -3.0672547810733506e-02  2.1948590539473931e-02  2.9533568101805085e-02  2.4950897910472124e-02  7.5720860064707332e-03  1.7155946892111439e-02  4.8960434214816734e-03  -1.1035208073352593e-02  1.3345921468200491e-03  -6.3353622004226817e-03  -1.8252808333159329e-02  1.5682485321274203e-01  -3.0385150344611776e-02  -4.2033450152580913e-02  -5.2764297550581298e-02  -6.3050303421843937e-02  -7.2727483045759017e-02  -8.1881773639373615e-02  -1.5021448132197804e-01  -9.3135268856865822e-02  -1.0384318337701691e-01  -1.1423098262493145e-01  -1.3631265761500125e-01  -1.2446343190751080e-01  -9.7597289284196781e-02  -1.1781038744207285e-01  -7.5728363460935727e-02  -5.2250690795871024e-02  -1.3445570216355468e-01  -1.4940708798263627e-01  1.6775696468407759e-03  1.5632764236254121e-01  4.4967215496361547e-03  -1.6358009417509603e-01  1.5707694858202154e-01  1.3612602254953515e-03  1.5297190791127249e-01  -1.6355204470500795e-01  -1.6321537881910367e-01  -1.6276189552631110e-01  -1.6325724719460935e-01  -1.6278586096242081e-01  -1.6360992666001672e-01  -1.6295794504898009e-01  -1.6406755227737671e-01  -1.6324493364276335e-01  -1.6439445363745017e-01  -1.6345309253081941e-01  -1.6432723340927824e-01  -1.6319174928138941e-01  -1.6369944526655231e-01  -1.6242895748615388e-01  -1.6260762961639325e-01  -1.6116589552898131e-01  -1.6110139468259363e-01  -1.5949434667431542e-01  -1.5898801228162504e-01  -1.5709958804584173e-01  -1.6062291389609948e-01  -1.5770199337303270e-01  -1.5492562119226050e-01  -1.5776603626923152e-01  -1.5962838470807844e-01  -1.5528460968692853e-01  -1.5238097863284342e-01  -1.5265933689444064e-01  -1.4939738851618198e-01  -1.4955691224301024e-01  -1.4597691751127165e-01  -1.4605730379799087e-01  -1.4241395726839079e-01  -1.4215852839893250e-01  -1.3778352680036776e-01  -1.3764175884776464e-01  -1.3345343702407178e-01  -1.3288560516076006e-01  -1.2853712999418065e-01  -1.2773402817462706e-01  -1.2329462242247144e-01  -1.2227079084227029e-01  -1.1778661076906179e-01  -1.1650279094751954e-01  -1.1204210711993109e-01  -1.1046286373726745e-01  -1.0607276197532049e-01  -1.0421304729220147e-01  -9.9959340608487546e-02  -9.7761599255479448e-02  -9.3736483826318787e-02  -9.1097545354300702e-02  -1.5562381893320171e-01  -1.5720646600943566e-01  -8.7415573551744771e-02  -8.4355462822737051e-02  -8.1090257216045278e-02  -7.8035971048091596e-02  -7.4837550620733564e-02  -7.1441688657525579e-02  -6.8674339825327599e-02  -6.4957161084222809e-02  -1.5116166387700317e-01  -6.2714687906735303e-02  -5.8575289176367597e-02  -5.6631524213781398e-02  -5.2308474199729088e-02  -5.0996100881126820e-02  -4.6316875281760581e-02  -1.5238976419783579e-01  -1.5397404210917764e-01  -1.6482480887144424e-01  -4.5469301507097770e-02  -4.0507752315626686e-02  -4.0212493420098694e-02  -3.4970537150801458e-02  -3.5205429443729792e-02  -2.9740236573047935e-02  -1.6069527496358024e-01  -3.0468531691912906e-02  -2.4784364665334055e-02  -1.4159420497987291e-01  -2.5988495994800648e-02  -2.0153201546235604e-02  -2.1800129872196112e-02  -1.5841083005111438e-02  -1.7823840785643055e-02  -1.1839750002864025e-02  -1.6179963054293450e-01  -1.2833371205353755e-01  -1.4180688414407517e-02  -8.1526906670912370e-03  -1.4812396338977377e-01  -1.4891186491319483e-01  -1.4687586226215893e-01  -1.1262030315264716e-01  -1.0731524474306708e-02  -4.6194260209789879e-03  -7.6272426240410283e-03  -1.4425811132972074e-03  -4.6792942261646795e-03  1.3131294421185129e-03  -4.1456863708419792e-02  -1.9465558721082573e-03  -2.4309931761794603e-02  -6.0913762461725862e-02  -1.9486728506609193e-03  3.8399761411735864e-03  7.0823895723532201e-03  9.4633787282717065e-03  6.2028572861441969e-03  1.1612774694258542e-02  8.4295473441283030e-03  1.3619601368613017e-02  1.0440668303809304e-02  1.5371204195899968e-02  1.2282708203677935e-02  1.6983441543549256e-02  1.4015073850293812e-02  1.8402148252214812e-02  1.5518382769480159e-02  1.9697392587872398e-02  1.7018979833905483e-02  2.0982982440139783e-02  1.8360047455960694e-02  2.2040752625874488e-02  1.9623053901762628e-02  2.2962252654134058e-02  2.0636062292158339e-02  2.3801013145762193e-02  -8.0989926064967535e-02  -9.5678066997057401e-02  2.1671697637304324e-02  2.4511797223994939e-02  2.2655221838100738e-02  2.5187328214895527e-02  -1.4884117221867857e-01  -1.1440247801379981e-01  2.3533562047731091e-02  2.5749204289891192e-02  -1.3138287906399707e-01  -7.8358150560552467e-02  -1.4294659155166964e-01  -1.4323811355156374e-01  -1.4985326905228893e-01  -1.4303983578975416e-01  -1.4836067654762786e-01  -1.4205338440658863e-01  -1.4743051118026795e-01  -1.4047522137286034e-01  -1.4398651027938297e-01  -1.3795298084128160e-01  -1.4148024301414064e-01  -1.3512934714213232e-01  -1.3713680235762488e-01  -1.3178114426908891e-01  -1.3315943229184449e-01  -1.2836076657924420e-01  -1.2920208014413481e-01  -1.2477683857736439e-01  -1.2527959368915884e-01  -1.2118434744130382e-01  -1.2138289371570694e-01  -1.1754412241825377e-01  -1.1753667918757262e-01  -1.1390811253939193e-01  -1.1372219224515930e-01  -1.1031456558500712e-01  -1.0961944562156582e-01  -1.0646711031018670e-01  -1.0682615286045438e-01  -1.0320884942017816e-01  -1.0279882096084732e-01  -9.9599609106151815e-02  -9.9215633383710103e-02  -9.6037107546768502e-02  -9.5421991848235188e-02  -9.2423414579653168e-02  -1.2682775543518326e-01  -1.0313004380204997e-01  -1.1691583623877308e-01  -9.1759521455423224e-02  -8.8732736974228774e-02  -8.9177898947290515e-02  -8.5643516564734901e-02  -8.5002198127261508e-02  -8.2027017016812337e-02  -8.1228288919900610e-02  -7.8361625248056732e-02  -7.7470704375857624e-02  -7.4645448492278027e-02  -8.1937119239562831e-02  -1.5317578119028652e-01  -1.4224143064208403e-01  -7.3774270844654016e-02  -7.0870517368048211e-02  -7.1708557871782833e-02  -6.7931603572751409e-02  -6.7071427265618891e-02  -6.4171429381623804e-02  -6.3217177400528610e-02  -6.0389521423902276e-02  -1.3352081133129595e-01  -6.4772101246723265e-02  -5.9386612752662923e-02  -5.6622079591971512e-02  -1.2511831782673147e-01  -5.5669968240961140e-02  -5.2801401925969410e-02  -5.4031280040261601e-02  -4.9884797931602595e-02  -4.8871364230933384e-02  -4.5837245738623494e-02  -4.6814378984228924e-02  -4.2763156475849183e-02  -4.1808162033527135e-02  -3.8722435415835040e-02  -3.7764672320671225e-02  -3.4589929718948635e-02  -3.5575084517113609e-02  -3.1442061447579432e-02  -3.0432755141464856e-02  -2.7306522194796977e-02  -2.6340971784020915e-02  -2.3190629623052992e-02  -1.3724284743910148e-01  -1.0234247219532873e-01  -1.1700868903170572e-01  -2.2322903845633964e-02  -1.9107996045703724e-02  -1.9989372406329597e-02  -1.5751066059396829e-02  -1.4878473702525341e-02  -1.1519729459846343e-02  -1.6631589366974377e-02  2.4233719323621495e-02  2.6219695657355501e-02  2.4874350215526472e-02  2.6622076113679314e-02  2.5449382204406106e-02  2.6951042158478516e-02  -8.4242372865390366e-02  -5.0372728227799431e-02  -1.6463189654771071e-01  -1.0618442169249648e-02  -7.3250961187393878e-03  -9.4659742837588892e-02  2.1435758800328442e-02  2.5906903333172370e-02  1.2164482951124133e-02  2.5932615731928409e-02  2.7197950379802698e-02  2.8303596753996633e-02  2.8326758642231730e-02  2.7369109166115908e-02  2.8296738697846761e-02  2.7472719800280366e-02  2.8206962209726884e-02  2.7492738028451581e-02  2.8048448544047394e-02  2.7440066344567100e-02  2.7831678757622009e-02  2.7302645940118209e-02  2.7542479217140946e-02  2.7088015751677786e-02  2.7193399961961302e-02  2.6800505460060992e-02  2.6782321460679524e-02  2.6443206054932295e-02  2.6311996085600926e-02  2.6005975150151024e-02  2.5766718099155379e-02  2.5486094388533644e-02  2.5170008113458896e-02  2.4888166928931619e-02  2.4485592740217901e-02  2.4230213357972531e-02  2.3761088058204358e-02  2.3478320582526347e-02  2.2950384473562735e-02  2.2668103245141305e-02  2.2091780967305762e-02  2.7856968497904960e-02  -3.2494616977826997e-02  -6.6154394762933000e-02  -6.3039865043122189e-03  -3.0219386040235400e-03  -4.0347741467563567e-03  4.2114042377372035e-04  -6.3633725186613738e-04  3.9242248416245908e-03  4.8596300066463599e-03  8.3833903307815021e-03  9.4369145194265723e-03  1.2934059938247687e-02  1.1978014185018432e-02  1.6517473407398137e-02  1.7330094395660557e-02  2.1021063100881990e-02  2.1818440820582957e-