<?xml version="1.0"?>
<VTKFile type="UnstructuredGrid"  version="0.1"  >
<UnstructuredGrid>
<Piece  NumberOfPoints="2886" NumberOfCells="5412">
<Points>
<DataArray  type="Float64"  NumberOfComponents="3"  format="ascii">0 0.1 0  0.98 0.1 0  1 0.1 0  1 0 0  1.5 0 0  3 0 0  3 0.3 0  0 0.3 0  0.01975375321854102 0.1 0  0.03918897458218897 0.1 0  0.05831079002627837 0.1 0  0.07712425666319796 0.1 0  0.0956343475259058 0.1 0  0.1138459546796227 0.1 0  0.1317638870668193 0.1 0  0.1493928840275937 0.1 0  0.1667376092280033 0.1 0  0.1838026357802664 0.1 0  0.2005924801287244 0.1 0  0.2171115811543574 0.1 0  0.2333643037107681 0.1 0  0.2493549444060462 0.1 0  0.2650877293306821 0.1 0  0.2805668058011438 0.1 0  0.2957962848620976 0.1 0  0.3107801766802674 0.1 0  0.3255224447361181 0.1 0  0.3400269848175519 0.1 0  0.3542976327080778 0.1 0  0.3683381609158136 0.1 0  0.3821522744564845 0.1 0  0.3957436316838916 0.1 0  0.4091158196437086 0.1 0  0.4222723742184605 0.1 0  0.4352167733293057 0.1 0  0.4479524348643424 0.1 0  0.4604827295467524 0.1 0  0.4728109659990664 0.1 0  0.4849404035409129 0.1 0  0.4968742471455402 0.1 0  0.508615651843175 0.1 0  0.520167721130924 0.1 0  0.5315335063628542 0.1 0  0.5427160117228604 0.1 0  0.5537181940261912 0.1 0  0.564542961924507 0.1 0  0.575193173270606 0.1 0  0.5856716438765114 0.1 0  0.5959811458006617 0.1 0  0.6061243988680743 0.1 0  0.6161040893285659 0.1 0  0.6259228503970299 0.1 0  0.6355832809287655 0.1 0  0.6450879281079505 0.1 0  0.6544393102991295 0.1 0  0.663639896558931 0.1 0  0.6726921201956305 0.1 0  0.6815983691630338 0.1 0  0.6903610031396646 0.1 0  0.6989823343332418 0.1 0  0.7074646404270378 0.1 0  0.7158101645005117 0.1 0  0.7240211149852543 0.1 0  0.7320996585612525 0.1 0  0.7400479319727645 0.1 0  0.7478680336617921 0.1 0  0.755562036504958 0.1 0  0.7631319665092091 0.1 0  0.7705798279317605 0.1 0  0.777907588066146 0.1 0  0.7851171851013118 0.1 0  0.7922105226004981 0.1 0  0.7991894774550319 0.1 0  0.8060558928136696 0.1 0  0.812811583201334 0.1 0  0.8194583352091183 0.1 0  0.8259979035038147 0.1 0  0.8324320194413813 0.1 0  0.8387623808293405 0.1 0  0.8449906627004957 0.1 0  0.8511185094880469 0.1 0  0.8571475426008311 0.1 0  0.8630793533568246 0.1 0  0.8689155114558531 0.1 0  0.8746575581239063 0.1 0  0.8803070109173519 0.1 0  0.885865363938836 0.1 0  0.8913340851680313 0.1 0  0.8967146206523592 0.1 0  0.9020083930695622 0.1 0  0.9072167995950768 0.1 0  0.9123412183131177 0.1 0  0.9173830029719022 0.1 0  0.9223434865647732 0.1 0  0.9272239785872722 0.1 0  0.9320257720706087 0.1 0  0.9367501330378739 0.1 0  0.9413983102716995 0.1 0  0.9459715351562933 0.1 0  0.9504710127113115 0.1 0  0.9548979346500661 0.1 0  0.9592534708344373 0.1 0  0.9635387708980176 0.1 0  0.9677549682252325 0.1 0  0.971903177251235 0.1 0  0.9759844952956497 0.1 0  0.9840000000000086 0.1 0  0.987999999999974 0.1 0  0.9919999999999393 0.1 0  0.9959999999999913 0.1 0  1 0.09591793123533533 0  1 0.09133596463859224 0  1 0.08619288104391448 0  1 0.08041996484521211 0  1 0.07394008421771697 0  1 0.06666666567302955 0  1 0.05850252932209174 0  1 0.04933859630113544 0  1 0.03905242821848202 0  1 0.02750659386753798 0  1 0.01454683679239736 0  1.015625 0 0  1.03125 0 0  1.046875 0 0  1.0625 0 0  1.078125 0 0  1.09375 0 0  1.109375 0 0  1.125 0 0  1.140625 0 0  1.15625 0 0  1.171875 0 0  1.1875 0 0  1.203125 0 0  1.21875 0 0  1.234375 0 0  1.25 0 0  1.265625 0 0  1.28125 0 0  1.296875 0 0  1.3125 0 0  1.328125 0 0  1.34375 0 0  1.359375 0 0  1.375 0 0  1.390625 0 0  1.40625 0 0  1.421875 0 0  1.4375 0 0  1.453125 0 0  1.46875 0 0  1.484375 0 0  1.515920751924515 0 0  1.531989369316721 0 0  1.54820720925872 0 0  1.564575665560501 0 0  1.581096138674279 0 0  1.597770029901263 0 0  1.614598783332311 0 0  1.631583831055205 0 0  1.64872661129721 0 0  1.666028606716533 0 0  1.683491276608443 0 0  1.701116134125304 0 0  1.718904673324128 0 0  1.736858414799339 0 0  1.754978895814663 0 0  1.773267661782904 0 0  1.791726281103402 0 0  1.810356325314689 0 0  1.8291593848892 0 0  1.848137076690385 0 0  1.867291007717254 0 0  1.886622833871288 0 0  1.90613418642363 0 0  1.925826753299799 0 0  1.945702199101513 0 0  1.96576223584749 0 0  1.986008569283268 0 0  2.006442931928877 0 0  2.02706707547783 0 0  2.047882750887917 0 0  2.06889175187935 0 0  2.090095860038271 0 0  2.111496891648636 0 0  2.133096679109554 0 0  2.154897066851056 0 0  2.176899916687499 0 0  2.199107102752146 0 0  2.22152053937028 0 0  2.244142122958061 0 0  2.266973806444078 0 0  2.290017523268154 0 0  2.313275249499252 0 0  2.336748971745516 0 0  2.360440702338606 0 0  2.384352453384031 0 0  2.408486280477412 0 0  2.432844240041185 0 0  2.457428414757088 0 0  2.482240901796653 0 0  2.507283830121838 0 0  2.532559332080812 0 0  2.558069568787417 0 0  2.583816724966441 0 0  2.60980299606584 0 0  2.636030600971886 0 0  2.662501790984011 0 0  2.689218818279327 0 0  2.716183964547616 0 0  2.743399548861297 0 0  2.77086788244719 0 0  2.798591312896326 0 0  2.826572223178268 0 0  2.854812990138617 0 0  2.883316031690714 0 0  2.912083780657189 0 0  2.941118704633482 0 0  2.970423276998917 0 0  3 0.02999999999994495 0  3 0.05999999999987042 0  3 0.089999999999783 0  3 0.119999999999701 0  3 0.149999999999619 0  3 0.179999999999692 0  3 0.2099999999997737 0  3 0.2399999999998511 0  3 0.2699999999999185 0  2.970138294777171 0.3 0  2.940375666438236 0.3 0  2.910711782853056 0.3 0  2.881146331305122 0.3 0  2.851678975030285 0.3 0  2.822309388626621 0.3 0  2.793037250095074 0.3 0  2.76386223529133 0.3 0  2.734784017903872 0.3 0  2.705802289276642 0.3 0  2.676916713794697 0.3 0  2.648126987654635 0.3 0  2.619432780406184 0.3 0  2.590833779385199 0.3 0  2.562329669847737 0.3 0  2.533920134950189 0.3 0  2.505604855727852 0.3 0  2.477383539822502 0.3 0  2.449255847639465 0.3 0  2.421221492569094 0.3 0  2.393280152486815 0.3 0  2.36543151914496 0.3 0  2.337675285481809 0.3 0  2.310011142385583 0.3 0  2.282438797441587 0.3 0  2.254957931061538 0.3 0  2.227568248063605 0.3 0  2.200269436651085 0.3 0  2.173061204949961 0.3 0  2.145943251515011 0.3 0  2.118915272469994 0.3 0  2.091976978084957 0.3 0  2.065128060700849 0.3 0  2.038368218849433 0.3 0  2.01169717777258 0.3 0  1.985114624111908 0.3 0  1.958620267850966 0.3 0  1.93221382054972 0.3 0  1.905894991850698 0.3 0  1.879663489459713 0.3 0  1.853519019126419 0.3 0  1.827461291053897 0.3 0  1.801490031354372 0.3 0  1.775604937580312 0.3 0  1.74980572560258 0.3 0  1.724092118631866 0.3 0  1.698463829173586 0.3 0  1.672920575782554 0.3 0  1.647462076974085 0.3 0  1.622088043536933 0.3 0  1.5967981978949 0.3 0  1.571592267767068 0.3 0  1.546469970305736 0.3 0  1.521431023814044 0.3 0  1.496475156230927 0.3 0  1.471602093687753 0.3 0  1.446811560490646 0.3 0  1.422103279101731 0.3 0  1.397476971708191 0.3 0  1.37293238939876 0.3 0  1.348469231419202 0.3 0  1.324087248732772 0.3 0  1.299786165921677 0.3 0  1.275565710847046 0.3 0  1.251425617644257 0.3 0  1.227365618676339 0.3 0  1.203385446174014 0.3 0  1.179484853067473 0.3 0  1.155663548773374 0.3 0  1.131921292279077 0.3 0  1.108257802159295 0.3 0  1.084672829009693 0.3 0  1.061166115303374 0.3 0  1.037737392995421 0.3 0  1.01438640299116 0.3 0  0.991112899770314 0.3 0  0.9679166155523955 0.3 0  0.944797284182564 0.3 0  0.921754678526042 0.3 0  0.8987885143602501 0.3 0  0.8758985548820624 0.3 0  0.8530845484099929 0.3 0  0.8303462351786988 0.3 0  0.8076833651172373 0.3 0  0.7850956864865304 0.3 0  0.7625829601354557 0.3 0  0.7401449314598274 0.3 0  0.717781337993959 0.3 0  0.6954919649675473 0.3 0  0.6732765357561226 0.3 0  0.6511348120768439 0.3 0  0.6290665642016573 0.3 0  0.6070715355430467 0.3 0  0.5851494825775325 0.3 0  0.5633001690203812 0.3 0  0.5415233562273221 0.3 0  0.5198187909431873 0.3 0  0.4981862401387795 0.3 0  0.4766254686134248 0.3 0  0.4551362360485234 0.3 0  0.4337182975262159 0.3 0  0.4123714223228037 0.3 0  0.3910953802377493 0.3 0  0.3698899313205595 0.3 0  0.3487548463710963 0.3 0  0.3276898864081783 0.3 0  0.3066948129116018 0.3 0  0.2857694003037476 0.3 0  0.2649134227095047 0.3 0  0.2441266417321288 0.3 0  0.2234088223399122 0.3 0  0.2027597568977288 0.3 0  0.1821792020676698 0.3 0  0.1616669305402443 0.3 0  0.1412227158799362 0.3 0  0.12084633013886 0.3 0  0.1005375673448281 0.3 0  0.08029618164595353 0.3 0  0.06012194778526769 0.3 0  0.04001466495039718 0.3 0  0.01997408913631205 0.3 0  0 0.2800000000000553 0  0 0.2600000000001105 0  0 0.2400000000001658 0  0 0.2200000000002211 0  0 0.2000000000002764 0  0 0.1800000000002244 0  0 0.1600000000001691 0  0 0.140000000000115 0  0 0.1200000000000564 0  1.13346801534201 0.01255848438672509 0  1.003577645172735 0.09351054173913405 0  0.9777559943702486 0.1034978156913738 0  0.9524533750752109 0.1040889939962738 0  0.9296242411226409 0.1041520033606139 0  0.9046110503652111 0.104409422380137 0  0.8777709649694228 0.1053360318797398 0  0.8483859145648608 0.1061007868330701 0  0.8162363822948977 0.1052777104363292 0  0.7893110024210437 0.1060761643971561 0  0.7587949382612539 0.1067265405088633 0  0.7280603867732535 0.1069398153264939 0  0.6947001989413015 0.1075609887579097 0  0.6590363283767549 0.1076715322596598 0  0.6210028614493155 0.1072970410408442 0  1.1953125 0.01353164693413185 0  1.258193991486058 0.01269648635163345 0  1.3201967268638 0.01407907077719561 0  1.383538555392096 0.01434101079053473 0  1.445312500000001 0.01303671693628424 0  1.508925448095738 0.01398525724792267 0  0.9939176689634008 0.1034638089837981 0  1.120967497222226 0.2796788492172345 0  1.572835902117391 0.01424132418857359 0  1.637573277451887 0.01212536916586023 0  1.709730776795181 0.01466855431023635 0  1.005631976950563 0.07074019818158772 0  1.784944696816299 0.01454708406461822 0  0.5805605730631225 0.1101465090472147 0  1.855621181165637 0.01550931272897607 0  0.5366111276616774 0.1096761308243709 0  1.935200147913231 0.01760344159641829 0  1.214922267975168 0.2799787705802257 0  1.31178773425331 0.2792
[...]
<PointData  Scalars="pressure"> 
<DataArray  type="Float64"  Name="pressure"  format="ascii">1.5998237029592666e-01  -1.6502012010731526e-01  -2.1729951368062619e-01  -1.6202964606436154e-01  -4.1287761137337745e-02  0.0000000000000000e+00  0.0000000000000000e+00  1.5998929229137090e-01  1.5405624795623485e-01  1.4822561761086686e-01  1.4248891364130237e-01  1.3684461166605982e-01  1.3129119910203949e-01  1.2582719728350664e-01  1.2045117122770030e-01  1.1516165254617659e-01  1.0995724553653159e-01  1.0483656240304291e-01  9.9798200355819627e-02  9.4840810636550435e-02  8.9963079084703620e-02  8.5163646359003017e-02  8.0441215972548760e-02  7.5794571780367234e-02  7.1222325802952541e-02  6.6723284755679652e-02  6.2296209349753634e-02  5.7939805963768354e-02  5.3652911513661986e-02  4.9434395931370737e-02  4.5282921636563452e-02  4.1197407431819079e-02  3.7176576442821116e-02  3.3219333162459008e-02  2.9324632394080230e-02  2.5491217430116654e-02  2.1717916941243171e-02  1.8003686332122074e-02  1.4347402927023941e-02  1.0747885415489555e-02  7.2041440758210881e-03  3.7149593231796257e-03  2.7931488518799659e-04  -3.1039514952299484e-03  -6.4359032874436129e-03  -9.7172347207118287e-03  -1.2949716499233007e-02  -1.6133976287418195e-02  -1.9271119186785663e-02  -2.2362401407127835e-02  -2.5408834239632964e-02  -2.8410884795917298e-02  -3.1370546466068419e-02  -3.4288321518766159e-02  -3.7165319664853334e-02  -4.0002662421465524e-02  -4.2801331543636606e-02  -4.5562366007062351e-02  -4.8286933089752647e-02  -5.0975959268608623e-02  -5.3630404539184842e-02  -5.6251215793703568e-02  -5.8839936996606716e-02  -6.1396967417817534e-02  -6.3923556953474611e-02  -6.6420363677471436e-02  -6.8889367428404666e-02  -7.1330994893832073e-02  -7.3745516197348190e-02  -7.6134631539795980e-02  -7.8499880835120994e-02  -8.0841000875455621e-02  -8.3160010021595246e-02  -8.5457620865570905e-02  -8.7734139993931398e-02  -8.9991115280388834e-02  -9.2229433442333336e-02  -9.4450007881561063e-02  -9.6654528697389358e-02  -9.8843116466948780e-02  -1.0101622874526631e-01  -1.0317454050180559e-01  -1.0532135410740540e-01  -1.0745582757179395e-01  -1.0957863115310967e-01  -1.1169157240800072e-01  -1.1379504029260308e-01  -1.1588995177493117e-01  -1.1797736890156238e-01  -1.2005907304521353e-01  -1.2213550499693242e-01  -1.2420686292415978e-01  -1.2627536297607686e-01  -1.2834181230000594e-01  -1.3040722346776012e-01  -1.3247281306886288e-01  -1.3453963488701381e-01  -1.3660910497837370e-01  -1.3868264999408025e-01  -1.4076182468487203e-01  -1.4284809991653977e-01  -1.4494276850245591e-01  -1.4704530779884220e-01  -1.4914001115815789e-01  -1.5150461297004586e-01  -1.5239663661220068e-01  -1.5560800301579281e-01  -1.5160148016403371e-01  -1.5681558529838774e-01  -1.5489799304253477e-01  -2.0415594173048049e-01  -1.8249501453275929e-01  -1.7588139938667025e-01  -1.7107750244091297e-01  -1.6783835741490294e-01  -1.6540906704897934e-01  -1.6359071270606604e-01  -1.6225997884969193e-01  -1.6146238756958486e-01  -1.6126921505128836e-01  -1.6167738744241997e-01  -1.6247064629366412e-01  -1.6284721646766481e-01  -1.6264383727016463e-01  -1.6197584830389145e-01  -1.6093400490286416e-01  -1.5956208028820282e-01  -1.5784509116215373e-01  -1.5577023179936619e-01  -1.5336641444164845e-01  -1.5065081376626491e-01  -1.4762722670670642e-01  -1.4430914473600201e-01  -1.4070738274861899e-01  -1.3683373241962640e-01  -1.3270829537324744e-01  -1.2834369100533505e-01  -1.2375203257313086e-01  -1.1895137721821820e-01  -1.1396034169595956e-01  -1.0878915736272352e-01  -1.0346776988128668e-01  -9.8014086348318208e-02  -9.2443848978042656e-02  -8.6787791813673507e-02  -8.1064249564062885e-02  -7.5302648034506828e-02  -6.9525328466905165e-02  -6.3755034584251885e-02  -5.8023591984325065e-02  -5.2351995379013597e-02  -4.6766457983702742e-02  -3.5840004871039666e-02  -3.0508959469168827e-02  -2.5304206257039129e-02  -2.0260451155581258e-02  -1.5405110213402429e-02  -1.0740209697563440e-02  -6.2935465650090991e-03  -2.0705789918149991e-03  1.8795409606612574e-03  5.5808566143250079e-03  9.0324666855160149e-03  1.2213033508799860e-02  1.5124747975021096e-02  1.7774493155927877e-02  2.0166200270997962e-02  2.2305010270588652e-02  2.4206429359071437e-02  2.5871045189150600e-02  2.7313548184579789e-02  2.8564674579772145e-02  2.9613124830358696e-02  3.0489444615495683e-02  3.1207461276317152e-02  3.1775477882885268e-02  3.2215206749240062e-02  3.2531349516899878e-02  3.2755173547759878e-02  3.2877472179987870e-02  3.2919401597671955e-02  3.2885967985425417e-02  3.2785098120275649e-02  3.2626320053605440e-02  3.2418920960285716e-02  3.2167016190633863e-02  3.1871375016287784e-02  3.1539144676048861e-02  3.1170991236791009e-02  3.0769564137080308e-02  3.0335879980294769e-02  2.9870270298908291e-02  2.9373017632475438e-02  2.8843948865928122e-02  2.8281734569556436e-02  2.7686567814135442e-02  2.7055868898013605e-02  2.6388234771947166e-02  2.5684671663127549e-02  2.4940310733601929e-02  2.4153140576238422e-02  2.3327447407758262e-02  2.2453687473758550e-02  2.1538858508443899e-02  2.0572493620994000e-02  1.9563362543541615e-02  1.8503702531331347e-02  1.7389705666751815e-02  1.6231847444385102e-02  1.5015965879382085e-02  1.3753388864437071e-02  1.2438043725631811e-02  1.1068916286022133e-02  9.6460127480297673e-03  8.1714935932986673e-03  6.6485170362183257e-03  5.0676683947117546e-03  3.4467082788038773e-03  1.7693009260750336e-03  0.0000000000000000e+00  0.0000000000000000e+00  0.0000000000000000e+00  0.0000000000000000e+00  0.0000000000000000e+00  0.0000000000000000e+00  0.0000000000000000e+00  0.0000000000000000e+00  0.0000000000000000e+00  1.9240115539154873e-03  3.7195454088125622e-03  5.4873873301525475e-03  7.2019581457519501e-03  8.8670398465238495e-03  1.0481361968103377e-02  1.2043995109917898e-02  1.3553201299623537e-02  1.5006093620603544e-02  1.6400444539674874e-02  1.7732211266540971e-02  1.8998885494033328e-02  2.0195357946603334e-02  2.1318592728734147e-02  2.2363701278996482e-02  2.3324075533901856e-02  2.4199275384065216e-02  2.4978119974033011e-02  2.5655906224122699e-02  2.6226444266002204e-02  2.6682841104805448e-02  2.7018412459544460e-02  2.7227469157063772e-02  2.7299281126297568e-02  2.7232098326196399e-02  2.7014334667036018e-02  2.6643762560797406e-02  2.6109059898865285e-02  2.5405157501473360e-02  2.4529454802124633e-02  2.3471320745045637e-02  2.2225364486528461e-02  2.0806520968744663e-02  1.9200606356282127e-02  1.7381700350988679e-02  1.5390282076310643e-02  1.3202878581601503e-02  1.0820675158290766e-02  8.2451234212341865e-03  5.4839258787390682e-03  2.5283277715550203e-03  -6.0786751295073961e-04  -3.9329842932101719e-03  -7.4363565995423384e-03  -1.1129102982408471e-02  -1.4995530948385398e-02  -1.9036677266274032e-02  -2.3243575896236157e-02  -2.7619270871746534e-02  -3.2149771017265176e-02  -3.6832158811366193e-02  -4.1654764459761219e-02  -4.6603992689765020e-02  -5.1670902529204810e-02  -5.6839539493272202e-02  -6.2085920966245517e-02  -6.7350317930463324e-02  -7.2678924430658029e-02  -7.7986281417077710e-02  -8.3211801246516795e-02  -8.8359165471875292e-02  -9.3356166352627265e-02  -9.8182470732286226e-02  -1.0273148978022927e-01  -1.0699596780820582e-01  -1.1086529407413412e-01  -1.1432721547506303e-01  -1.1727000619975335e-01  -1.1969792146450743e-01  -1.2147836210786633e-01  -1.2262713072683211e-01  -1.2307404025649044e-01  -1.2269372293461160e-01  -1.2165925779534130e-01  -1.1984251234287263e-01  -1.1725564504330339e-01  -1.1401988732122811e-01  -1.1016299452063753e-01  -1.0581099695013274e-01  -1.0103389021730712e-01  -9.5833619058128483e-02  -9.0343162620477979e-02  -8.4601284736563032e-02  -7.8697535387980549e-02  -7.2636576998641331e-02  -6.6445584584609405e-02  -6.0175051612540990e-02  -5.3837666554406194e-02  -4.7444153977280905e-02  -4.1017245126318783e-02  -3.4561883048629685e-02  -2.8095690690747740e-02  -2.1621496851454019e-02  -1.5141790467052598e-02  -8.6675617887363270e-03  -2.2000069048806023e-03  4.2597024924898169e-03  1.0708227723093076e-02  1.7142597815586608e-02  2.3561698434492254e-02  2.9965034285949699e-02  3.6351137444442370e-02  4.2719829218424113e-02  4.9069568187035069e-02  5.5400696823681060e-02  6.1712522528793709e-02  6.8004788120209061e-02  7.4277404414748255e-02  8.0530078944881470e-02  8.6762766419945389e-02  9.2975436559692412e-02  9.9167999621010444e-02  1.0534043346596765e-01  1.1149274130648361e-01  1.1762493690701742e-01  1.2373700274395537e-01  1.2982900923569912e-01  1.3590097942941970e-01  1.4195294390750460e-01  1.4798495726059718e-01  1.5399705608050349e-01  1.5998926555199161e-01  1.5998897785439983e-01  1.5998827521858272e-01  1.5998717224254352e-01  1.5998583248328338e-01  1.5998449134157694e-01  1.5998338606030685e-01  1.5998267874266359e-01  1.5998239207876153e-01  -1.5420481893911189e-01  -1.8707481628558920e-01  -1.5518474088631601e-01  -1.4182806568202261e-01  -1.3153532189304820e-01  -1.2117040451085002e-01  -1.1080813050383403e-01  -1.0009977374544084e-01  -8.8931116187300943e-02  -7.9912806016310220e-02  -6.9954342921995163e-02  -6.0135304551165655e-02  -4.9653483870523013e-02  -3.8592165725997517e-02  -2.6912526391760169e-02  -1.4236479846436020e-01  -1.2592158260854933e-01  -1.0626576098635426e-01  -8.3862362448991853e-02  -6.1158538607079427e-02  -3.8590610608798308e-02  -1.6742988912846671e-01  -1.2148039661332366e-01  -1.8223014357745378e-02  -1.0414675093806233e-03  1.3253769868106816e-02  -1.6732109732040740e-01  2.3190388520102349e-02  -1.4586037257169492e-02  2.8703822855893200e-02  -1.2601364866720115e-03  3.1771192092013720e-02  -1.1203053370092368e-01  -9.5131727179491657e-02  3.2777740486744630e-02  -7.4893313473857206e-02  1.2547978875087932e-02  -4.8730673563996935e-02  3.2435785975008138e-02  2.7406523496252073e-02  -1.5976328235298295e-01  3.1284851898914071e-02  -2.5197832952631623e-02  -1.2171115313009497e-01  4.2808054553077499e-02  2.9572074323585881e-02  -2.2129681550148851e-03  6.0304942246035581e-02  6.7280499629068791e-03  2.7307204300139696e-02  1.4396211285050512e-02  7.7595527231714492e-02  -1.1534959089372530e-01  2.4561301458813543e-02  1.9991385490210435e-02  -1.0331662053179060e-01  2.4006631890901537e-02  2.1036623009590544e-02  -8.7469387514893582e-02  9.7795385222207751e-02  1.1181236780266988e-01  -1.2951893804076317e-02  1.7916635967986302e-02  1.4211705344998013e-02  2.6304239978039642e-02  -6.9748651079437979e-02  2.7158079176253007e-02  -1.4807200691300240e-01  -4.4673625420514160e-02  2.6354297531548200e-02  1.2926407654029295e-01  -2.4897208787976802e-02  1.0329417000547951e-02  2.3694045330086035e-02  -5.3131335323267715e-03  2.0519249800511133e-02  2.0688547525520799e-02  5.2235742240867786e-02  1.7007655679453348e-02  7.1197379707101188e-02  8.9975092632404871e-02  1.2754551381563664e-02  1.2157530169798510e-01  1.6111545951049586e-03  1.5440584934806093e-01  -1.6246153582256448e-01  8.1307102842277153e-03  5.7361653401292630e-03  1.3937795592315974e-01  -1.7389936521901472e-01  -1.6181592185884641e-01  -1.1788019658922257e-01  -5.6914222162824574e-02  6.9899770447685349e-03  3.2825838632466756e-02  1.3971830016887690e-01  -3.9358162246765117e-02  -6.3995081524923933e-02  -8.5153206023402539e-02  -1.0420015239698253e-01  8.7857843432215171e-02  2.7023032005172608e-02  6.8685021258880610e-02  1.0221677074030261e-01  2.5229295880037264e-02  2.2884457530625443e-02  5.0983715082652641e-02  2.5929423266159182e-02  2.8521057833859040e-02  3.5447184606339666e-02  3.0494431516104474e-02  3.1943585991908753e-02  3.2738600634939337e-02  3.2507373654548796e-02  -2.8273716882514694e-02  1.9859102743501594e-02  3.0548566316003389e-02  2.6286273597849668e-02  5.4764056202000599e-03  1.8842756569613213e-02  6.9262445853411460e-03  -8.7576680755735228e-03  1.3430999916901405e-03  -8.4403863287454382e-03  -2.0369841593292189e-02  1.5474576511712504e-01  -3.2520112599327959e-02  -4.4193130458499895e-02  -5.4956068966239155e-02  -6.5284303559399792e-02  -7.5014475894697188e-02  -8.4234415459747969e-02  -1.4875470861332721e-01  -9.5595109107157197e-02  -1.0643987964938696e-01  -1.1700335742613287e-01  -1.3470663721530468e-01  -1.2746280125667914e-01  -9.5562915455832939e-02  -1.1599609018572070e-01  -7.3491324124266247e-02  -4.9871915406892363e-02  -1.3775229761417915e-01  -1.5539688350458755e-01  1.6903725920297936e-03  1.5424895219109605e-01  4.5320833225799897e-03  -1.6224222871043442e-01  1.5499774595803600e-01  1.3689073857359843e-03  1.5089327457120438e-01  -1.6221155622197966e-01  -1.6187341760446297e-01  -1.6141560304232835e-01  -1.6191496243881684e-01  -1.6143946266966516e-01  -1.6226760947734217e-01  -1.6161105749654561e-01  -1.6272434308365702e-01  -1.6189711791508357e-01  -1.6304892561260048e-01  -1.6210294315796564e-01  -1.6297820696340962e-01  -1.6183729625348114e-01  -1.6234760717273158e-01  -1.6107007065085571e-01  -1.6125846444447206e-01  -1.5980665469981295e-01  -1.5976536608776745e-01  -1.5814456572885682e-01  -1.5768642873890545e-01  -1.5576971740084872e-01  -1.5935199471415371e-01  -1.5632877251167834e-01  -1.5356650343518879e-01  -1.5656270723237056e-01  -1.5848389128288082e-01  -1.5389079658432470e-01  -1.5099109830564908e-01  -1.5123794891931100e-01  -1.4797346785544543e-01  -1.4810378904468141e-01  -1.4451703128778767e-01  -1.4456766169109270e-01  -1.4091115693093220e-01  -1.4062709417349503e-01  -1.3623501939306210e-01  -1.3606275317104505e-01  -1.3185310432014694e-01  -1.3125531074834443e-01  -1.2688408597749706e-01  -1.2604841594055197e-01  -1.2158735132667067e-01  -1.2052752026315079e-01  -1.1602460206840468e-01  -1.1470061245501907e-01  -1.1022598769818732e-01  -1.0860158578562198e-01  -1.0420535584260052e-01  -1.0229460952168300e-01  -9.8043844144149891e-02  -9.5791728822322370e-02  -9.1778580833188975e-02  -8.9073171448106725e-02  -1.5458054225632678e-01  -1.5628037017100080e-01  -8.5424447074265691e-02  -8.2292848545278796e-02  -7.9069540683795556e-02  -7.5941024395618423e-02  -7.2801450646734212e-02  -6.9323088090610302e-02  -6.6631423415874913e-02  -6.2825885308059146e-02  -1.4982455674829651e-01  -6.0673254241172613e-02  -5.6442032430046647e-02  -5.4621667117529318e-02  -5.0188146808468892e-02  -4.8992886197956338e-02  -4.4216513132573007e-02  -1.5156874255232020e-01  -1.5335322546569838e-01  -1.6347781542038164e-01  -4.3500799381577013e-02  -3.8440139549903010e-02  -3.8286572068368184e-02  -3.2947114256927285e-02  -3.3330328219570236e-02  -2.7770006375971597e-02  -1.5968559093365284e-01  -2.8651164923191634e-02  -2.2876520246988576e-02  -1.4014418310664731e-01  -2.4234755906295185e-02  -1.8314538285479572e-02  -2.0113222159703407e-02  -1.4076673388702839e-02  -1.6204209808393051e-02  -1.0153417804642129e-02  -1.6043699632041969e-01  -1.2672645758499326e-01  -1.2631498577604107e-02  -6.5461894405514842e-03  -1.4757422766177378e-01  -1.4860355813759871e-01  -1.4613566358295180e-01  -1.1085480322893623e-01  -9.2520081549806472e-03  -3.0932529933387731e-03  -6.2179425858479107e-03  3.3404246958487555e-06  -3.3365545709039390e-03  2.6816654434991499e-03  -3.9265271279774194e-02  -2.8019236623687998e-04  -2.2249286662863625e-02  -5.8703027828712145e-02  -6.6877023655731655e-04  5.1348902816200177e-03  8.4819022368651780e-03  1.0780157054319818e-02  7.4286839810707717e-03  1.2851400363324874e-02  9.5911218748457681e-03  1.4783212378976965e-02  1.1541532200815467e-02  1.6462935775257700e-02  1.3326926051869591e-02  1.8010279836420687e-02  1.5007256476266976e-02  1.9368625314506498e-02  1.6462872645174147e-02  2.0609236777000117e-02  1.7918957516898280e-02  2.1843703615526584e-02  1.9218661212548605e-02  2.2855420025750025e-02  2.0443839088648587e-02  2.3734230654558135e-02  2.1422806996233903e-02  2.4534511651416471e-02  -7.8866473509820845e-02  -9.3791230413736354e-02  2.2425816318125884e-02  2.5209778428813265e-02  2.3377734174674428e-02  2.5852916043078718e-02  -1.4737035961122644e-01  -1.1256476969425308e-01  2.4225810213250196e-02  2.6383924126376006e-02  -1.2972786730197494e-01  -7.6397464357145561e-02  -1.4266721056638532e-01  -1.4324038871534950e-01  -1.4989150087970704e-01  -1.4339236172108202e-01  -1.4885950353802904e-01  -1.4278978699681175e-01  -1.4844960406365790e-01  -1.4161907367912488e-01  -1.4546285020579042e-01  -1.3946394933859962e-01  -1.4336743470239491e-01  -1.3695149773390294e-01  -1.3932356455186087e-01  -1.3383748827785499e-01  -1.3554148519121725e-01  -1.3058356992913220e-01  -1.3169542534330883e-01  -1.2710381502282575e-01  -1.2782822617316913e-01  -1.2357006345052880e-01  -1.2394852104842617e-01  -1.1995791640123479e-01  -1.2009790845418294e-01  -1.1633132470615473e-01  -1.1626594214347911e-01  -1.1273535248000238e-01  -1.1213419898136662e-01  -1.0886815505382637e-01  -1.0912176080063986e-01  -1.0550765236185174e-01  -1.0518806296962815e-01  -1.0189744728834697e-01  -1.0159796677386404e-01  -9.8332271643884250e-02  -9.7784649955699618e-02  -9.4709802515792724e-02  -1.2869767634077789e-01  -1.0530658671691052e-01  -1.1914630308613761e-01  -9.4103609486243175e-02  -9.1009572029215544e-02  -9.1386276019812793e-02  -8.7851986215362679e-02  -8.7269147277870329e-02  -8.4236126396960542e-02  -8.3484527176252599e-02  -8.0567558454894814e-02  -7.9715749634122424e-02  -7.6844439870333472e-02  -8.4085316421842804e-02  -1.5386117427726059e-01  -1.4459686269234484e-01  -7.6008105109983459e-02  -7.3063831694344522e-02  -7.3862179153870777e-02  -7.0084041179410292e-02  -6.9259289239425550e-02  -6.6324024506665025e-02  -6.5398792627410898e-02  -6.2540210571458990e-02  -1.3622902963335301e-01  -6.6887779816263163e-02  -6.1561823862314805e-02  -5.8770789450040647e-02  -1.2784731668822730e-01  -5.7838938654038920e-02  -5.4946706272706432e-02  -5.6153663205265908e-02  -5.2006569865629890e-02  -5.1013492634844393e-02  -4.7959085551939042e-02  -4.8913052993615938e-02  -4.4865074452139303e-02  -4.3929666490882452e-02  -4.0826594360958340e-02  -3.9885279264344591e-02  -3.6695513141070869e-02  -3.7663047170019781e-02  -3.3533563906183943e-02  -3.2539018593917550e-02  -2.9400500654457349e-02  -2.8447098480968318e-02  -2.5286083007861542e-02  -1.3780041567248463e-01  -1.0481065529142775e-01  -1.1966769682381977e-01  -2.4428473593446871e-02  -2.1204342672413893e-02  -2.2074859219904291e-02  -1.7838712790261453e-02  -1.6975122060924330e-02  -1.3609021454937158e-02  -1.8708191110355741e-02  2.4899529128808096e-02  2.6826997211841019e-02  2.5514091873974999e-02  2.7202661808633455e-02  2.6063473738470906e-02  2.7506585904459376e-02  -8.6551642162830872e-02  -4.8506583666945061e-02  -1.6329177496207892e-01  -1.2715050332188350e-02  -9.4153179940347428e-03  -9.7069251106191051e-02  2.2448350604431441e-02  2.6636298170905185e-02  1.3591311214026385e-02  2.6521461116271117e-02  2.7729642443195868e-02  2.8803114068686075e-02  2.8803816179700199e-02  2.7878046708536917e-02  2.8752215783719826e-02  2.7959208455385343e-02  2.8641711726633528e-02  2.7957698865779007e-02  2.8464078142168177e-02  2.7883827724705237e-02  2.8228425224064334e-02  2.7725925643419531e-02  2.7921064771375997e-02  2.7491611422518131e-02  2.7554221374702086e-02  2.7184413123155851e-02  2.7125820545321425e-02  2.6807605635395526e-02  2.6638232377157723e-02  2.6350653897453252e-02  2.6076141366367003e-02  2.5811716032811623e-02  2.5462590111808563e-02  2.5195517323294232e-02  2.4761967661597186e-02  2.4519028990051945e-02  2.4021052256021150e-02  2.3748088190678047e-02  2.3194274850338766e-02  2.2921504949815381e-02  2.2319813841919060e-02  2.8435421322230533e-02  -3.4568430679526620e-02  -6.8370266581677108e-02  -8.4002165483627305e-03  -5.1126320570116192e-03  -6.1189747947457242e-03  -1.6643181194545753e-03  -2.7151296631930835e-03  1.8434689489640066e-03  2.7732832595484245e-03  6.3011957781617996e-03  7.3500654996738676e-03  1.0850819507959431e-02  9.8993886068165903e-03  1.4437420177746883e-02  1.5246192150978119e-02  1.8939951159060903e-02  1.9734212060304280e-