<?xml version="1.0"?>
<VTKFile type="UnstructuredGrid"  version="0.1"  >
<UnstructuredGrid>
<Piece  NumberOfPoints="2886" NumberOfCells="5412">
<Points>
<DataArray  type="Float64"  NumberOfComponents="3"  format="ascii">0 0.1 0  0.98 0.1 0  1 0.1 0  1 0 0  1.5 0 0  3 0 0  3 0.3 0  0 0.3 0  0.01975375321854102 0.1 0  0.03918897458218897 0.1 0  0.05831079002627837 0.1 0  0.07712425666319796 0.1 0  0.0956343475259058 0.1 0  0.1138459546796227 0.1 0  0.1317638870668193 0.1 0  0.1493928840275937 0.1 0  0.1667376092280033 0.1 0  0.1838026357802664 0.1 0  0.2005924801287244 0.1 0  0.2171115811543574 0.1 0  0.2333643037107681 0.1 0  0.2493549444060462 0.1 0  0.2650877293306821 0.1 0  0.2805668058011438 0.1 0  0.2957962848620976 0.1 0  0.3107801766802674 0.1 0  0.3255224447361181 0.1 0  0.3400269848175519 0.1 0  0.3542976327080778 0.1 0  0.3683381609158136 0.1 0  0.3821522744564845 0.1 0  0.3957436316838916 0.1 0  0.4091158196437086 0.1 0  0.4222723742184605 0.1 0  0.4352167733293057 0.1 0  0.4479524348643424 0.1 0  0.4604827295467524 0.1 0  0.4728109659990664 0.1 0  0.4849404035409129 0.1 0  0.4968742471455402 0.1 0  0.508615651843175 0.1 0  0.520167721130924 0.1 0  0.5315335063628542 0.1 0  0.5427160117228604 0.1 0  0.5537181940261912 0.1 0  0.564542961924507 0.1 0  0.575193173270606 0.1 0  0.5856716438765114 0.1 0  0.5959811458006617 0.1 0  0.6061243988680743 0.1 0  0.6161040893285659 0.1 0  0.6259228503970299 0.1 0  0.6355832809287655 0.1 0  0.6450879281079505 0.1 0  0.6544393102991295 0.1 0  0.663639896558931 0.1 0  0.6726921201956305 0.1 0  0.6815983691630338 0.1 0  0.6903610031396646 0.1 0  0.6989823343332418 0.1 0  0.7074646404270378 0.1 0  0.7158101645005117 0.1 0  0.7240211149852543 0.1 0  0.7320996585612525 0.1 0  0.7400479319727645 0.1 0  0.7478680336617921 0.1 0  0.755562036504958 0.1 0  0.7631319665092091 0.1 0  0.7705798279317605 0.1 0  0.777907588066146 0.1 0  0.7851171851013118 0.1 0  0.7922105226004981 0.1 0  0.7991894774550319 0.1 0  0.8060558928136696 0.1 0  0.812811583201334 0.1 0  0.8194583352091183 0.1 0  0.8259979035038147 0.1 0  0.8324320194413813 0.1 0  0.8387623808293405 0.1 0  0.8449906627004957 0.1 0  0.8511185094880469 0.1 0  0.8571475426008311 0.1 0  0.8630793533568246 0.1 0  0.8689155114558531 0.1 0  0.8746575581239063 0.1 0  0.8803070109173519 0.1 0  0.885865363938836 0.1 0  0.8913340851680313 0.1 0  0.8967146206523592 0.1 0  0.9020083930695622 0.1 0  0.9072167995950768 0.1 0  0.9123412183131177 0.1 0  0.9173830029719022 0.1 0  0.9223434865647732 0.1 0  0.9272239785872722 0.1 0  0.9320257720706087 0.1 0  0.9367501330378739 0.1 0  0.9413983102716995 0.1 0  0.9459715351562933 0.1 0  0.9504710127113115 0.1 0  0.9548979346500661 0.1 0  0.9592534708344373 0.1 0  0.9635387708980176 0.1 0  0.9677549682252325 0.1 0  0.971903177251235 0.1 0  0.9759844952956497 0.1 0  0.9840000000000086 0.1 0  0.987999999999974 0.1 0  0.9919999999999393 0.1 0  0.9959999999999913 0.1 0  1 0.09591793123533533 0  1 0.09133596463859224 0  1 0.08619288104391448 0  1 0.08041996484521211 0  1 0.07394008421771697 0  1 0.06666666567302955 0  1 0.05850252932209174 0  1 0.04933859630113544 0  1 0.03905242821848202 0  1 0.02750659386753798 0  1 0.01454683679239736 0  1.015625 0 0  1.03125 0 0  1.046875 0 0  1.0625 0 0  1.078125 0 0  1.09375 0 0  1.109375 0 0  1.125 0 0  1.140625 0 0  1.15625 0 0  1.171875 0 0  1.1875 0 0  1.203125 0 0  1.21875 0 0  1.234375 0 0  1.25 0 0  1.265625 0 0  1.28125 0 0  1.296875 0 0  1.3125 0 0  1.328125 0 0  1.34375 0 0  1.359375 0 0  1.375 0 0  1.390625 0 0  1.40625 0 0  1.421875 0 0  1.4375 0 0  1.453125 0 0  1.46875 0 0  1.484375 0 0  1.515920751924515 0 0  1.531989369316721 0 0  1.54820720925872 0 0  1.564575665560501 0 0  1.581096138674279 0 0  1.597770029901263 0 0  1.614598783332311 0 0  1.631583831055205 0 0  1.64872661129721 0 0  1.666028606716533 0 0  1.683491276608443 0 0  1.701116134125304 0 0  1.718904673324128 0 0  1.736858414799339 0 0  1.754978895814663 0 0  1.773267661782904 0 0  1.791726281103402 0 0  1.810356325314689 0 0  1.8291593848892 0 0  1.848137076690385 0 0  1.867291007717254 0 0  1.886622833871288 0 0  1.90613418642363 0 0  1.925826753299799 0 0  1.945702199101513 0 0  1.96576223584749 0 0  1.986008569283268 0 0  2.006442931928877 0 0  2.02706707547783 0 0  2.047882750887917 0 0  2.06889175187935 0 0  2.090095860038271 0 0  2.111496891648636 0 0  2.133096679109554 0 0  2.154897066851056 0 0  2.176899916687499 0 0  2.199107102752146 0 0  2.22152053937028 0 0  2.244142122958061 0 0  2.266973806444078 0 0  2.290017523268154 0 0  2.313275249499252 0 0  2.336748971745516 0 0  2.360440702338606 0 0  2.384352453384031 0 0  2.408486280477412 0 0  2.432844240041185 0 0  2.457428414757088 0 0  2.482240901796653 0 0  2.507283830121838 0 0  2.532559332080812 0 0  2.558069568787417 0 0  2.583816724966441 0 0  2.60980299606584 0 0  2.636030600971886 0 0  2.662501790984011 0 0  2.689218818279327 0 0  2.716183964547616 0 0  2.743399548861297 0 0  2.77086788244719 0 0  2.798591312896326 0 0  2.826572223178268 0 0  2.854812990138617 0 0  2.883316031690714 0 0  2.912083780657189 0 0  2.941118704633482 0 0  2.970423276998917 0 0  3 0.02999999999994495 0  3 0.05999999999987042 0  3 0.089999999999783 0  3 0.119999999999701 0  3 0.149999999999619 0  3 0.179999999999692 0  3 0.2099999999997737 0  3 0.2399999999998511 0  3 0.2699999999999185 0  2.970138294777171 0.3 0  2.940375666438236 0.3 0  2.910711782853056 0.3 0  2.881146331305122 0.3 0  2.851678975030285 0.3 0  2.822309388626621 0.3 0  2.793037250095074 0.3 0  2.76386223529133 0.3 0  2.734784017903872 0.3 0  2.705802289276642 0.3 0  2.676916713794697 0.3 0  2.648126987654635 0.3 0  2.619432780406184 0.3 0  2.590833779385199 0.3 0  2.562329669847737 0.3 0  2.533920134950189 0.3 0  2.505604855727852 0.3 0  2.477383539822502 0.3 0  2.449255847639465 0.3 0  2.421221492569094 0.3 0  2.393280152486815 0.3 0  2.36543151914496 0.3 0  2.337675285481809 0.3 0  2.310011142385583 0.3 0  2.282438797441587 0.3 0  2.254957931061538 0.3 0  2.227568248063605 0.3 0  2.200269436651085 0.3 0  2.173061204949961 0.3 0  2.145943251515011 0.3 0  2.118915272469994 0.3 0  2.091976978084957 0.3 0  2.065128060700849 0.3 0  2.038368218849433 0.3 0  2.01169717777258 0.3 0  1.985114624111908 0.3 0  1.958620267850966 0.3 0  1.93221382054972 0.3 0  1.905894991850698 0.3 0  1.879663489459713 0.3 0  1.853519019126419 0.3 0  1.827461291053897 0.3 0  1.801490031354372 0.3 0  1.775604937580312 0.3 0  1.74980572560258 0.3 0  1.724092118631866 0.3 0  1.698463829173586 0.3 0  1.672920575782554 0.3 0  1.647462076974085 0.3 0  1.622088043536933 0.3 0  1.5967981978949 0.3 0  1.571592267767068 0.3 0  1.546469970305736 0.3 0  1.521431023814044 0.3 0  1.496475156230927 0.3 0  1.471602093687753 0.3 0  1.446811560490646 0.3 0  1.422103279101731 0.3 0  1.397476971708191 0.3 0  1.37293238939876 0.3 0  1.348469231419202 0.3 0  1.324087248732772 0.3 0  1.299786165921677 0.3 0  1.275565710847046 0.3 0  1.251425617644257 0.3 0  1.227365618676339 0.3 0  1.203385446174014 0.3 0  1.179484853067473 0.3 0  1.155663548773374 0.3 0  1.131921292279077 0.3 0  1.108257802159295 0.3 0  1.084672829009693 0.3 0  1.061166115303374 0.3 0  1.037737392995421 0.3 0  1.01438640299116 0.3 0  0.991112899770314 0.3 0  0.9679166155523955 0.3 0  0.944797284182564 0.3 0  0.921754678526042 0.3 0  0.8987885143602501 0.3 0  0.8758985548820624 0.3 0  0.8530845484099929 0.3 0  0.8303462351786988 0.3 0  0.8076833651172373 0.3 0  0.7850956864865304 0.3 0  0.7625829601354557 0.3 0  0.7401449314598274 0.3 0  0.717781337993959 0.3 0  0.6954919649675473 0.3 0  0.6732765357561226 0.3 0  0.6511348120768439 0.3 0  0.6290665642016573 0.3 0  0.6070715355430467 0.3 0  0.5851494825775325 0.3 0  0.5633001690203812 0.3 0  0.5415233562273221 0.3 0  0.5198187909431873 0.3 0  0.4981862401387795 0.3 0  0.4766254686134248 0.3 0  0.4551362360485234 0.3 0  0.4337182975262159 0.3 0  0.4123714223228037 0.3 0  0.3910953802377493 0.3 0  0.3698899313205595 0.3 0  0.3487548463710963 0.3 0  0.3276898864081783 0.3 0  0.3066948129116018 0.3 0  0.2857694003037476 0.3 0  0.2649134227095047 0.3 0  0.2441266417321288 0.3 0  0.2234088223399122 0.3 0  0.2027597568977288 0.3 0  0.1821792020676698 0.3 0  0.1616669305402443 0.3 0  0.1412227158799362 0.3 0  0.12084633013886 0.3 0  0.1005375673448281 0.3 0  0.08029618164595353 0.3 0  0.06012194778526769 0.3 0  0.04001466495039718 0.3 0  0.01997408913631205 0.3 0  0 0.2800000000000553 0  0 0.2600000000001105 0  0 0.2400000000001658 0  0 0.2200000000002211 0  0 0.2000000000002764 0  0 0.1800000000002244 0  0 0.1600000000001691 0  0 0.140000000000115 0  0 0.1200000000000564 0  1.13346801534201 0.01255848438672509 0  1.003577645172735 0.09351054173913405 0  0.9777559943702486 0.1034978156913738 0  0.9524533750752109 0.1040889939962738 0  0.9296242411226409 0.1041520033606139 0  0.9046110503652111 0.104409422380137 0  0.8777709649694228 0.1053360318797398 0  0.8483859145648608 0.1061007868330701 0  0.8162363822948977 0.1052777104363292 0  0.7893110024210437 0.1060761643971561 0  0.7587949382612539 0.1067265405088633 0  0.7280603867732535 0.1069398153264939 0  0.6947001989413015 0.1075609887579097 0  0.6590363283767549 0.1076715322596598 0  0.6210028614493155 0.1072970410408442 0  1.1953125 0.01353164693413185 0  1.258193991486058 0.01269648635163345 0  1.3201967268638 0.01407907077719561 0  1.383538555392096 0.01434101079053473 0  1.445312500000001 0.01303671693628424 0  1.508925448095738 0.01398525724792267 0  0.9939176689634008 0.1034638089837981 0  1.120967497222226 0.2796788492172345 0  1.572835902117391 0.01424132418857359 0  1.637573277451887 0.01212536916586023 0  1.709730776795181 0.01466855431023635 0  1.005631976950563 0.07074019818158772 0  1.784944696816299 0.01454708406461822 0  0.5805605730631225 0.1101465090472147 0  1.855621181165637 0.01550931272897607 0  0.5366111276616774 0.1096761308243709 0  1.935200147913231 0.01760344159641829 0  1.214922267975168 0.2799787705802257 0  1.31178773425331 0.2792
[...]
<PointData  Scalars="pressure"> 
<DataArray  type="Float64"  Name="pressure"  format="ascii">1.5603492108138053e-01  -1.6592894249926241e-01  -2.1290336484876507e-01  -1.5986883397205873e-01  -3.8086236166027826e-02  0.0000000000000000e+00  0.0000000000000000e+00  1.5604275001840184e-01  1.5010879922167233e-01  1.4427816052904444e-01  1.3854143574858971e-01  1.3289709956787610e-01  1.2734363669971729e-01  1.2187956706379424e-01  1.1650345667387488e-01  1.1121383108474117e-01  1.0600929504425985e-01  1.0088845868021819e-01  9.5849913028031725e-02  9.0892307081366558e-02  8.6014326076395919e-02  8.1214601553867075e-02  7.6491833334639603e-02  7.1844808864979987e-02  6.7272120139879849e-02  6.2772575141034043e-02  5.8344928078435651e-02  5.3987869139978724e-02  4.9700233733159078e-02  4.5480891846270979e-02  4.1328476763060167e-02  3.7241909329858221e-02  3.3219886670925319e-02  2.9261309014010365e-02  2.5365130556198608e-02  2.1530064934371582e-02  1.7754919989251054e-02  1.4038644409600103e-02  1.0380096764033894e-02  6.7780672498672810e-03  3.2315606840290674e-03  -2.6068004755555520e-04  -3.6996843579140391e-03  -7.0866481734071065e-03  -1.0422657557064731e-02  -1.3708384658719069e-02  -1.6945717985664004e-02  -2.0135256577143993e-02  -2.3278142784728176e-02  -2.6375688555839442e-02  -2.9428932066637076e-02  -3.2438300769321880e-02  -3.5405943858531713e-02  -3.8332330817535842e-02  -4.1218618171225213e-02  -4.4065977632709030e-02  -4.6875424155497933e-02  -4.9648040069843656e-02  -5.2385053776320606e-02  -5.5087423126749670e-02  -5.7756146030377119e-02  -6.0392207644979094e-02  -6.2997269079978171e-02  -6.5571699753592005e-02  -6.8116832598470900e-02  -7.0633331797418153e-02  -7.3123364601350632e-02  -7.5587333603519699e-02  -7.8025473517715632e-02  -8.0439638937371050e-02  -8.2831504266973832e-02  -8.5200703484095683e-02  -8.7549464214173089e-02  -8.9878526861821267e-02  -9.2188182048264344e-02  -9.4480133601732935e-02  -9.6755332230244698e-02  -9.9014770420028639e-02  -1.0126032399288616e-01  -1.0349209779697195e-01  -1.0571055496500664e-01  -1.0791645712029307e-01  -1.1011354999082514e-01  -1.1230084500471889e-01  -1.1447910742117690e-01  -1.1665040749618621e-01  -1.1881520967138708e-01  -1.2097459007724436e-01  -1.2312982694963731e-01  -1.2528304351432454e-01  -1.2743480812830985e-01  -1.2958547892254285e-01  -1.3173778735697503e-01  -1.3389285910818544e-01  -1.3605210531464823e-01  -1.3821727829467029e-01  -1.4038998458753738e-01  -1.4257236988399050e-01  -1.4476674580999319e-01  -1.4697577124322497e-01  -1.4920260598237356e-01  -1.5144925159618000e-01  -1.5372165085336950e-01  -1.5601806143099523e-01  -1.5842472134292404e-01  -1.6043560690240630e-01  -1.6498892773276103e-01  -1.6572257045788438e-01  -1.7010177382631311e-01  -1.6595325844124778e-01  -2.0127642903204826e-01  -1.8024111625384195e-01  -1.7370920931741313e-01  -1.6893646197242451e-01  -1.6570522406809746e-01  -1.6327641912570759e-01  -1.6145445612471404e-01  -1.6011692115142390e-01  -1.5931158567500076e-01  -1.5911131537352888e-01  -1.5951596551782762e-01  -1.6031055448384668e-01  -1.6068393633143205e-01  -1.6047437107721091e-01  -1.5979703903515496e-01  -1.5874215541234879e-01  -1.5735293325465677e-01  -1.5561368243401541e-01  -1.5351110350644098e-01  -1.5107418289521299e-01  -1.4832022847987814e-01  -1.4525307541682211e-01  -1.4188652990226952e-01  -1.3823183409004533e-01  -1.3430121721952026e-01  -1.3011551019297862e-01  -1.2568808264115799e-01  -1.2103182020062270e-01  -1.1616569869514978e-01  -1.1110933416421948e-01  -1.0587421952333327e-01  -1.0049096258533834e-01  -9.4979104185978616e-02  -8.9355251024945362e-02  -8.3651417279089132e-02  -7.7886628039598921e-02  -7.2092040010345762e-02  -6.6290423869278636e-02  -6.0505401366878875e-02  -5.4769512992594610e-02  -4.9104286197865797e-02  -4.3536277449524256e-02  -3.2679234422219899e-02  -2.7400711864931933e-02  -2.2260373090020109e-02  -1.7292377111329589e-02  -1.2523099430779599e-02  -7.9549873222993332e-03  -3.6131427216619929e-03  4.9747653698803288e-04  4.3281758831765303e-03  7.9047983903696630e-03  1.1228547989335114e-02  1.4279179491868027e-02  1.7060070937264530e-02  1.9579759334614491e-02  2.1843484060409816e-02  2.3857433268680436e-02  2.5638294120834997e-02  2.7187780660434362e-02  2.8520757367684550e-02  2.9668925567031802e-02  3.0621434290947352e-02  3.1408913398712844e-02  3.2045386073111241e-02  3.2539021229058454e-02  3.2911484421235038e-02  3.3167101201497656e-02  3.3336600062108479e-02  3.3410755839325131e-02  3.3409992471119893e-02  3.3339012770225940e-02  3.3205216852391396e-02  3.3017526693189525e-02  3.2784654290114665e-02  3.2510286011606035e-02  3.2194892035623895e-02  3.1845110667232883e-02  3.1461347819981007e-02  3.1045987665104312e-02  3.0599844965498123e-02  3.0123138450314502e-02  2.9616084307392689e-02  2.9078469440150977e-02  2.8508990532407002e-02  2.7907817223043963e-02  2.7272410913920846e-02  2.6601358034519171e-02  2.5895434258835191e-02  2.5149737257657245e-02  2.4362139467957268e-02  2.3536116617318407e-02  2.2662299370396079e-02  2.1746475097953362e-02  2.0778416138209101e-02  1.9765697561472909e-02  1.8700350548500666e-02  1.7578406286879032e-02  1.6409807293576256e-02  1.5180661563431874e-02  1.3902427091859742e-02  1.2569460604761091e-02  1.1181349624642180e-02  9.7387395076855444e-03  8.2448170361699661e-03  6.7031752818352257e-03  5.1054475095495501e-03  3.4694594479735309e-03  1.7795980863470836e-03  0.0000000000000000e+00  0.0000000000000000e+00  0.0000000000000000e+00  0.0000000000000000e+00  0.0000000000000000e+00  0.0000000000000000e+00  0.0000000000000000e+00  0.0000000000000000e+00  0.0000000000000000e+00  1.9315823028286398e-03  3.7343116416265459e-03  5.5081107118815729e-03  7.2276091593422836e-03  8.8970586597029045e-03  1.0516109330678083e-02  1.2084790409398067e-02  1.3602350565413181e-02  1.5066830760275854e-02  1.6476774029000163e-02  1.7828658174973568e-02  1.9120213296698618e-02  2.0346238266882550e-02  2.1503334669226448e-02  2.2585972247398941e-02  2.3586865676011287e-02  2.4504690944807058e-02  2.5327505494383902e-02  2.6049885099594400e-02  2.6665074216717453e-02  2.7165840748187255e-02  2.7545232553508388e-02  2.7797669872018326e-02  2.7912533070889523e-02  2.7887996732811452e-02  2.7713102192876184e-02  2.7385599863239830e-02  2.6894489114398869e-02  2.6234878725824418e-02  2.5404187138935021e-02  2.4391894638916497e-02  2.3192473776273346e-02  2.1820699614472115e-02  2.0262312239331403e-02  1.8491408513958543e-02  1.6548220107675728e-02  1.4408951667485374e-02  1.2075220622481958e-02  9.5481580829175818e-03  6.8355560801258847e-03  3.9288439020064283e-03  8.4145768012338772e-04  -2.4343406672274310e-03  -5.8880409316810186e-03  -9.5303657868387529e-03  -1.3346520248794394e-02  -1.7336903933737914e-02  -2.1493574040542866e-02  -2.5819060988454361e-02  -3.0300213407300408e-02  -3.4934769292515856e-02  -3.9711668625470875e-02  -4.4618723041913132e-02  -4.9647631528848657e-02  -5.4783110748787986e-02  -6.0003365183049995e-02  -6.5253588522769745e-02  -7.0574230276326075e-02  -7.5886568473131633e-02  -8.1134244670985123e-02  -8.6319347872138241e-02  -9.1373585251295436e-02  -9.6278401443476658e-02  -1.0093062193176931e-01  -1.0532501437023209e-01  -1.0935444914341075e-01  -1.1300730245518191e-01  -1.1617585138521030e-01  -1.1886358204900761e-01  -1.2093959325144506e-01  -1.2241735329484073e-01  -1.2322288361102697e-01  -1.2322289771035785e-01  -1.2258334611417659e-01  -1.2115917748719103e-01  -1.1895024539519093e-01  -1.1606688998904702e-01  -1.1252568328065372e-01  -1.0845206412615399e-01  -1.0391509165018516e-01  -9.8911700406609113e-02  -9.3584911344570337e-02  -8.7975713173269243e-02  -8.2183254570770095e-02  -7.6212056181188911e-02  -7.0092228632101738e-02  -6.3880223823687202e-02  -5.7590235837222233e-02  -5.1234243562780078e-02  -4.4837812489538553e-02  -3.8406497197351744e-02  -3.1960152585823631e-02  -2.5501973964674927e-02  -1.9034768970660473e-02  -1.2570940288834846e-02  -6.1118475005291452e-03  3.4118093195290640e-04  6.7843684218568566e-03  1.3214354089034494e-02  1.9629869420207058e-02  2.6030347005390614e-02  3.2414120401798648e-02  3.8780979488488750e-02  4.5129173781704730e-02  5.1459081704217854e-02  5.7769911468811809e-02  6.4061363597996343e-02  7.0333328472968040e-02  7.6585467057098441e-02  8.2817718815559480e-02  8.9030040481289680e-02  9.5222322581995103e-02  1.0139453061459179e-01  1.0754665937639600e-01  1.1367871559011113e-01  1.1979067056203417e-01  1.2588259583295450e-01  1.3195450787360630e-01  1.3800643243984986e-01  1.4403842339718273e-01  1.5005051256327742e-01  1.5604271978000653e-01  1.5604239440347989e-01  1.5604159971491541e-01  1.5604035221554213e-01  1.5603883689566428e-01  1.5603732001207557e-01  1.5603606990528501e-01  1.5603526992153510e-01  1.5603494571437596e-01  -1.5192757314924266e-01  -1.8455487599536233e-01  -1.6226329767634987e-01  -1.4813749085670055e-01  -1.3724801390477398e-01  -1.2644383738302226e-01  -1.1575029445601619e-01  -1.0478118361692416e-01  -9.3407778429611218e-02  -8.4264860722222876e-02  -7.4200809884518160e-02  -6.4303546936762782e-02  -5.3760038340188630e-02  -4.2651668288420569e-02  -3.0937046937137624e-02  -1.3991825591264326e-01  -1.2323749520553116e-01  -1.0332905041981183e-01  -8.0714174188119991e-02  -5.7916351233301508e-02  -3.5420407752044338e-02  -1.7538534913222245e-01  -1.2107505029903923e-01  -1.5303197477198192e-02  1.4833491603236206e-03  1.5259413022699729e-02  -1.6516934321378260e-01  2.4672477439338713e-02  -1.8585427190165052e-02  2.9778258714715650e-02  -5.2412346421979224e-03  3.2511265970088001e-02  -1.1061630025359377e-01  -9.3196518945258003e-02  3.3288705604648597e-02  -7.2802604603450408e-02  8.5791563417815381e-03  -4.6740563833059953e-02  3.2821140454377062e-02  2.3446013046277282e-02  -1.5756079234347467e-01  3.1587163986949614e-02  -2.3435727680753599e-02  -1.2244161959236827e-01  3.8852863163045807e-02  2.9822378041874140e-02  -7.4868490584245823e-04  5.6353300969883988e-02  8.0499614524311459e-03  2.7526162568975103e-02  1.5568602085378865e-02  7.3645874864769215e-02  -1.1719704705211313e-01  2.4769461738045132e-02  2.1023469155860740e-02  -1.0606228027733595e-01  2.4897428620117453e-02  2.1242276973124835e-02  -9.0769655161928905e-02  9.3846989248928009e-02  1.0786445048019777e-01  -1.1338501569993827e-02  1.8108900144976882e-02  1.4367030705106481e-02  2.7064492153401686e-02  -7.3353467619020202e-02  2.7747154924349472e-02  -1.5485028936695666e-01  -4.8474896505537726e-02  2.6816867321818368e-02  1.2531648251502794e-01  -2.8768651536537227e-02  1.0432369756759877e-02  2.3982073047164435e-02  -9.2204381357013573e-03  1.6589307215627080e-02  2.0858813794082540e-02  4.8294817832983568e-02  1.7095255470672217e-02  6.7253656914579074e-02  8.6029888450610409e-02  1.2800080796585176e-02  1.1762901713620025e-01  1.6213181137795674e-03  1.5045893499891463e-01  -1.6031049694104849e-01  8.1596429539049775e-03  5.7813160721650837e-03  1.3543146520317181e-01  -1.7169267727289494e-01  -1.5964144614961054e-01  -1.1690511881522059e-01  -6.0641278340036534e-02  3.0694741410762609e-03  2.8890283824414151e-02  1.3577080125817417e-01  -3.7447198858473106e-02  -6.1918931575790669e-02  -8.3102951064509559e-02  -1.0246681400790247e-01  8.3908936940685727e-02  2.7699461500056189e-02  6.4734482685684713e-02  9.8270998086556746e-02  2.5603980896108259e-02  2.3091774385872975e-02  4.7030431587463416e-02  2.6140643890831483e-02  2.8753239635517409e-02  3.1489768436760122e-02  3.0767875266859378e-02  3.2282326335747957e-02  3.3185547309068461e-02  3.3116538354369042e-02  -2.5204556690597797e-02  1.5894861165455715e-02  3.1442311027503909e-02  2.7554996029139734e-02  1.5019392308205058e-03  2.0577226950650129e-02  9.1874558334993448e-03  -6.0319414142836428e-03  1.3492888473672889e-03  -1.2430346320358237e-02  -2.4379793760321542e-02  1.5079851212371284e-01  -3.6560015676123471e-02  -4.8274487724155594e-02  -5.9091433610539604e-02  -6.9490976388200607e-02  -7.9310956097364188e-02  -8.8642522748941216e-02  -1.4640073726149008e-01  -1.0018626333263336e-01  -1.1126589658367506e-01  -1.2213265370412545e-01  -1.3214812573825221e-01  -1.3298701671880894e-01  -9.2512441957409777e-02  -1.1317814390377746e-01  -7.0282856287102971e-02  -4.6642290647850616e-02  -1.4379944114991153e-01  -1.6634082492830213e-01  1.7008332946928148e-03  1.5030232499239871e-01  4.5512206493696318e-03  -1.6007965809081071e-01  1.5105031270125324e-01  1.3759186288929423e-03  1.4694673696850249e-01  -1.6004446357817365e-01  -1.5970412091050293e-01  -1.5923908056116909e-01  -1.5974501830112775e-01  -1.5926258294275661e-01  -1.6009702777628784e-01  -1.5943268141979794e-01  -1.6055125182017388e-01  -1.5971604109097776e-01  -1.6087064437263651e-01  -1.5991652279351243e-01  -1.6079265862783634e-01  -1.5964225711314448e-01  -1.6015612302885701e-01  -1.5886652779056587e-01  -1.5907137257305448e-01  -1.5760296997941386e-01  -1.5760354390370077e-01  -1.5596165779679266e-01  -1.5559522843307927e-01  -1.5363456353308147e-01  -1.5730954525893834e-01  -1.5410730151278351e-01  -1.5138686747412922e-01  -1.5465682636031383e-01  -1.5667238680663123e-01  -1.5163936170025810e-01  -1.4876639704049036e-01  -1.4894457323884441e-01  -1.4570094263694097e-01  -1.4576409570211629e-01  -1.4219721954639858e-01  -1.4217650123511055e-01  -1.3853138147160732e-01  -1.3817813728169612e-01  -1.3380239961728452e-01  -1.3355235853576997e-01  -1.2935106738718699e-01  -1.2867990013965758e-01  -1.2431907761201716e-01  -1.2340574274073067e-01  -1.1896125082561707e-01  -1.1781825163554574e-01  -1.1334039530815306e-01  -1.1192725474843584e-01  -1.0748764122674030e-01  -1.0576828407116540e-01  -1.0142182889344545e-01  -9.9408741738502157e-02  -9.5222446526710219e-02  -9.2868124285013801e-02  -8.8930653879361887e-02  -8.6105318804559572e-02  -1.5297379116053766e-01  -1.5486792927235166e-01  -8.2568532174633766e-02  -7.9314943623577452e-02  -7.6208920120770962e-02  -7.2957913042534336e-02  -6.9960654691591975e-02  -6.6351285284026840e-02  -6.3821591062261887e-02  -5.9881769003272002e-02  -1.4771412453773886e-01  -5.7904229959923406e-02  -5.3540623975334586e-02  -5.1941845994526580e-02  -4.7350274150380685e-02  -4.6352991921167104e-02  -4.1448567005236130e-02  -1.5037451458037537e-01  -1.5249356945084547e-01  -1.6129488300628270e-01  -4.0943003385585965e-02  -3.5757636802270738e-02  -3.5817384875637480e-02  -3.0362295968899194e-02  -3.0957400309296813e-02  -2.5290613675626950e-02  -1.5810503869588891e-01  -2.6379203751678553e-02  -2.0510571296496988e-02  -1.3788985762989142e-01  -2.2067282770551189e-02  -1.6065998300017589e-02  -1.8049788438189385e-02  -1.1947026359164727e-02  -1.4241311182618469e-02  -8.1427308790393022e-03  -1.5822794350266270e-01  -1.2427646076919614e-01  -1.0768717305581337e-02  -4.6513882317067625e-03  -1.4688177301165750e-01  -1.4831851435813204e-01  -1.4512607973383784e-01  -1.0823505165259600e-01  -7.4846665508052322e-03  -1.3114357436299488e-03  -4.5420596671004254e-03  1.6773014656784578e-03  -1.7451738482507076e-03  4.2562637375514970e-03  -3.6389944184934880e-02  1.6386593395677853e-03  -1.9680511876463493e-02  -5.5651931218996989e-02  8.4531299518511810e-04  6.6180456249487866e-03  1.0038412805698282e-02  1.2232590955476706e-02  8.8280669557315328e-03  1.4208400537990088e-02  1.0914000015774240e-02  1.6051022976986511e-02  1.2794517923262173e-02  1.7648947537250957e-02  1.4516365977201453e-02  1.9123720088947496e-02  1.6138880753118277e-02  2.0416560981977000e-02  1.7543859399993995e-02  2.1599245188912462e-02  1.8951494998734345e-02  2.2778031347694679e-02  2.0207247319101510e-02  2.3742361162372477e-02  2.1391778253051968e-02  2.4577997845653513e-02  2.2336828314820270e-02  2.5339728201290351e-02  -7.5798325101281566e-02  -9.1084732987150321e-02  2.3305138089704979e-02  2.5979697964083014e-02  2.4222248735372952e-02  2.6590088312054352e-02  -1.4499463961341608e-01  -1.0972627960433946e-01  2.5037078274977441e-02  2.7089982608355843e-02  -1.2710310401905739e-01  -7.3680609200930378e-02  -1.4247812428209003e-01  -1.4352752037507299e-01  -1.5019296623406364e-01  -1.4427669114510605e-01  -1.4995935254528478e-01  -1.4433464676263066e-01  -1.5044806918192818e-01  -1.4386981641642047e-01  -1.4826765759161192e-01  -1.4235723615622820e-01  -1.4689494964796626e-01  -1.4039263728617069e-01  -1.4338906652451541e-01  -1.3769483172046779e-01  -1.3996010450500354e-01  -1.3473846558624136e-01  -1.3631817754890718e-01  -1.3144685289253283e-01  -1.3255481314968925e-01  -1.2802046823006671e-01  -1.2871007314706620e-01  -1.2446116060545379e-01  -1.2485560436385781e-01  -1.2085385935963701e-01  -1.2099604648643990e-01  -1.1725582508139913e-01  -1.1681617158243740e-01  -1.1335636869660666e-01  -1.1342997175771588e-01  -1.0982257730875564e-01  -1.0965702864762722e-01  -1.0621153025479774e-01  -1.0605565132948985e-01  -1.0264227023560586e-01  -1.0220914370299997e-01  -9.9005168198280064e-02  -1.3224864461888788e-01  -1.0941394000336922e-01  -1.2333532525095825e-01  -9.8496670593374649e-02  -9.5288862948327113e-02  -9.5550052838115573e-02  -9.2016018556598037e-02  -9.1531717083035938e-02  -8.8401244475912549e-02  -8.7728939568612940e-02  -8.4727271057906367e-02  -8.3941177114733936e-02  -8.0992389482522978e-02  -8.8148041422145204e-02  -1.5525203107267879e-01  -1.4893691294518505e-01  -8.0214525162804182e-02  -7.7202131968744217e-02  -7.7934004483223546e-02  -7.4153810321350141e-02  -7.3388313673366151e-02  -7.0393963962191761e-02  -6.9517217310365600e-02  -6.6606865420305847e-02  -1.4121803728743776e-01  -7.0896060240499964e-02  -6.5669402033643853e-02  -6.2834034188615440e-02  -1.3288907198993849e-01  -6.1935963945594169e-02  -5.9004167227424242e-02  -6.0172974813242470e-02  -5.6024788345829378e-02  -5.5065560173772565e-02  -5.1977340873715035e-02  -5.2892839550403588e-02  -4.8850207966452001e-02  -4.7947289273787781e-02  -4.4815399057299136e-02  -4.3901338506179548e-02  -4.0686628532098514e-02  -4.1625002027124103e-02  -3.7501353557790384e-02  -3.6531207699262221e-02  -3.3372354783204661e-02  -3.2439011804454319e-02  -2.9260341270274614e-02  -1.3907030906560647e-01  -1.0941441534522582e-01  -1.2459531519779181e-01  -2.8419420414842741e-02  -2.5180041785925200e-02  -2.6032667067012381e-02  -2.1800062214581150e-02  -2.0951285002047515e-02  -1.7573058371264851e-02  -2.2651363763804718e-02  2.5683033331014217e-02  2.7505587010678560e-02  2.6269283767593781e-02  2.7853973654967314e-02  2.6790038512082174e-02  2.8131867236522858e-02  -9.0885628094125565e-02  -4.6089374828129977e-02  -1.6112409355711174e-01  -1.6691114096984250e-02  -1.3380862005282443e-02  -1.0157340535489173e-01  2.3484450116076389e-02  2.7382715045862861e-02  1.5124124744493513e-02  2.7219727005965196e-02  2.8329878978358383e-02  2.9327573091330692e-02  2.9306671912012951e-02  2.8454079783159170e-02  2.9233622929694059e-02  2.8510677814600479e-02  2.9101989474537768e-02  2.8485573742929180e-02  2.8905020835325423e-02  2.8387920291592525e-02  2.8649776776619871e-02  2.8206979825332913e-02  2.8323714460355764e-02  2.7950326859169580e-02  2.7938165293511525e-02  2.7619976806007845e-02  2.7491361499792970e-02  2.7219256775190048e-02  2.6984959077713842e-02  2.6737150386615300e-02  2.6404403874859393e-02  2.6173400267525768e-02  2.5771958115204410e-02  2.5532372194703157e-02  2.5052870163398674e-02  2.4829551684186234e-02  2.4292721720237272e-02  2.4030824939030394e-02  2.3446679074334356e-02  2.3178533662892502e-02  2.2552678149449411e-02  2.9033801060385563e-02  -3.8506973963946825e-02  -7.2546197713198174e-02  -1.2375627069211959e-02  -9.0789279705332151e-03  -1.0074623258022350e-02  -5.6220164172809629e-03  -6.6619086973099461e-03  -2.1065229088222588e-03  -1.1858550274966445e-03  2.3488566867552740e-03  3.3901212390186172e-03  6.8967801794306179e-03  5.9528811511636694e-03  1.0488584634877299e-02  1.1291082364268673e-02  1.4989394243671506e-02  1.5778580180992569e-0