<?xml version="1.0"?>
<VTKFile type="UnstructuredGrid"  version="0.1"  >
<UnstructuredGrid>
<Piece  NumberOfPoints="2886" NumberOfCells="5412">
<Points>
<DataArray  type="Float64"  NumberOfComponents="3"  format="ascii">0 0.1 0  0.98 0.1 0  1 0.1 0  1 0 0  1.5 0 0  3 0 0  3 0.3 0  0 0.3 0  0.01975375321854102 0.1 0  0.03918897458218897 0.1 0  0.05831079002627837 0.1 0  0.07712425666319796 0.1 0  0.0956343475259058 0.1 0  0.1138459546796227 0.1 0  0.1317638870668193 0.1 0  0.1493928840275937 0.1 0  0.1667376092280033 0.1 0  0.1838026357802664 0.1 0  0.2005924801287244 0.1 0  0.2171115811543574 0.1 0  0.2333643037107681 0.1 0  0.2493549444060462 0.1 0  0.2650877293306821 0.1 0  0.2805668058011438 0.1 0  0.2957962848620976 0.1 0  0.3107801766802674 0.1 0  0.3255224447361181 0.1 0  0.3400269848175519 0.1 0  0.3542976327080778 0.1 0  0.3683381609158136 0.1 0  0.3821522744564845 0.1 0  0.3957436316838916 0.1 0  0.4091158196437086 0.1 0  0.4222723742184605 0.1 0  0.4352167733293057 0.1 0  0.4479524348643424 0.1 0  0.4604827295467524 0.1 0  0.4728109659990664 0.1 0  0.4849404035409129 0.1 0  0.4968742471455402 0.1 0  0.508615651843175 0.1 0  0.520167721130924 0.1 0  0.5315335063628542 0.1 0  0.5427160117228604 0.1 0  0.5537181940261912 0.1 0  0.564542961924507 0.1 0  0.575193173270606 0.1 0  0.5856716438765114 0.1 0  0.5959811458006617 0.1 0  0.6061243988680743 0.1 0  0.6161040893285659 0.1 0  0.6259228503970299 0.1 0  0.6355832809287655 0.1 0  0.6450879281079505 0.1 0  0.6544393102991295 0.1 0  0.663639896558931 0.1 0  0.6726921201956305 0.1 0  0.6815983691630338 0.1 0  0.6903610031396646 0.1 0  0.6989823343332418 0.1 0  0.7074646404270378 0.1 0  0.7158101645005117 0.1 0  0.7240211149852543 0.1 0  0.7320996585612525 0.1 0  0.7400479319727645 0.1 0  0.7478680336617921 0.1 0  0.755562036504958 0.1 0  0.7631319665092091 0.1 0  0.7705798279317605 0.1 0  0.777907588066146 0.1 0  0.7851171851013118 0.1 0  0.7922105226004981 0.1 0  0.7991894774550319 0.1 0  0.8060558928136696 0.1 0  0.812811583201334 0.1 0  0.8194583352091183 0.1 0  0.8259979035038147 0.1 0  0.8324320194413813 0.1 0  0.8387623808293405 0.1 0  0.8449906627004957 0.1 0  0.8511185094880469 0.1 0  0.8571475426008311 0.1 0  0.8630793533568246 0.1 0  0.8689155114558531 0.1 0  0.8746575581239063 0.1 0  0.8803070109173519 0.1 0  0.885865363938836 0.1 0  0.8913340851680313 0.1 0  0.8967146206523592 0.1 0  0.9020083930695622 0.1 0  0.9072167995950768 0.1 0  0.9123412183131177 0.1 0  0.9173830029719022 0.1 0  0.9223434865647732 0.1 0  0.9272239785872722 0.1 0  0.9320257720706087 0.1 0  0.9367501330378739 0.1 0  0.9413983102716995 0.1 0  0.9459715351562933 0.1 0  0.9504710127113115 0.1 0  0.9548979346500661 0.1 0  0.9592534708344373 0.1 0  0.9635387708980176 0.1 0  0.9677549682252325 0.1 0  0.971903177251235 0.1 0  0.9759844952956497 0.1 0  0.9840000000000086 0.1 0  0.987999999999974 0.1 0  0.9919999999999393 0.1 0  0.9959999999999913 0.1 0  1 0.09591793123533533 0  1 0.09133596463859224 0  1 0.08619288104391448 0  1 0.08041996484521211 0  1 0.07394008421771697 0  1 0.06666666567302955 0  1 0.05850252932209174 0  1 0.04933859630113544 0  1 0.03905242821848202 0  1 0.02750659386753798 0  1 0.01454683679239736 0  1.015625 0 0  1.03125 0 0  1.046875 0 0  1.0625 0 0  1.078125 0 0  1.09375 0 0  1.109375 0 0  1.125 0 0  1.140625 0 0  1.15625 0 0  1.171875 0 0  1.1875 0 0  1.203125 0 0  1.21875 0 0  1.234375 0 0  1.25 0 0  1.265625 0 0  1.28125 0 0  1.296875 0 0  1.3125 0 0  1.328125 0 0  1.34375 0 0  1.359375 0 0  1.375 0 0  1.390625 0 0  1.40625 0 0  1.421875 0 0  1.4375 0 0  1.453125 0 0  1.46875 0 0  1.484375 0 0  1.515920751924515 0 0  1.531989369316721 0 0  1.54820720925872 0 0  1.564575665560501 0 0  1.581096138674279 0 0  1.597770029901263 0 0  1.614598783332311 0 0  1.631583831055205 0 0  1.64872661129721 0 0  1.666028606716533 0 0  1.683491276608443 0 0  1.701116134125304 0 0  1.718904673324128 0 0  1.736858414799339 0 0  1.754978895814663 0 0  1.773267661782904 0 0  1.791726281103402 0 0  1.810356325314689 0 0  1.8291593848892 0 0  1.848137076690385 0 0  1.867291007717254 0 0  1.886622833871288 0 0  1.90613418642363 0 0  1.925826753299799 0 0  1.945702199101513 0 0  1.96576223584749 0 0  1.986008569283268 0 0  2.006442931928877 0 0  2.02706707547783 0 0  2.047882750887917 0 0  2.06889175187935 0 0  2.090095860038271 0 0  2.111496891648636 0 0  2.133096679109554 0 0  2.154897066851056 0 0  2.176899916687499 0 0  2.199107102752146 0 0  2.22152053937028 0 0  2.244142122958061 0 0  2.266973806444078 0 0  2.290017523268154 0 0  2.313275249499252 0 0  2.336748971745516 0 0  2.360440702338606 0 0  2.384352453384031 0 0  2.408486280477412 0 0  2.432844240041185 0 0  2.457428414757088 0 0  2.482240901796653 0 0  2.507283830121838 0 0  2.532559332080812 0 0  2.558069568787417 0 0  2.583816724966441 0 0  2.60980299606584 0 0  2.636030600971886 0 0  2.662501790984011 0 0  2.689218818279327 0 0  2.716183964547616 0 0  2.743399548861297 0 0  2.77086788244719 0 0  2.798591312896326 0 0  2.826572223178268 0 0  2.854812990138617 0 0  2.883316031690714 0 0  2.912083780657189 0 0  2.941118704633482 0 0  2.970423276998917 0 0  3 0.02999999999994495 0  3 0.05999999999987042 0  3 0.089999999999783 0  3 0.119999999999701 0  3 0.149999999999619 0  3 0.179999999999692 0  3 0.2099999999997737 0  3 0.2399999999998511 0  3 0.2699999999999185 0  2.970138294777171 0.3 0  2.940375666438236 0.3 0  2.910711782853056 0.3 0  2.881146331305122 0.3 0  2.851678975030285 0.3 0  2.822309388626621 0.3 0  2.793037250095074 0.3 0  2.76386223529133 0.3 0  2.734784017903872 0.3 0  2.705802289276642 0.3 0  2.676916713794697 0.3 0  2.648126987654635 0.3 0  2.619432780406184 0.3 0  2.590833779385199 0.3 0  2.562329669847737 0.3 0  2.533920134950189 0.3 0  2.505604855727852 0.3 0  2.477383539822502 0.3 0  2.449255847639465 0.3 0  2.421221492569094 0.3 0  2.393280152486815 0.3 0  2.36543151914496 0.3 0  2.337675285481809 0.3 0  2.310011142385583 0.3 0  2.282438797441587 0.3 0  2.254957931061538 0.3 0  2.227568248063605 0.3 0  2.200269436651085 0.3 0  2.173061204949961 0.3 0  2.145943251515011 0.3 0  2.118915272469994 0.3 0  2.091976978084957 0.3 0  2.065128060700849 0.3 0  2.038368218849433 0.3 0  2.01169717777258 0.3 0  1.985114624111908 0.3 0  1.958620267850966 0.3 0  1.93221382054972 0.3 0  1.905894991850698 0.3 0  1.879663489459713 0.3 0  1.853519019126419 0.3 0  1.827461291053897 0.3 0  1.801490031354372 0.3 0  1.775604937580312 0.3 0  1.74980572560258 0.3 0  1.724092118631866 0.3 0  1.698463829173586 0.3 0  1.672920575782554 0.3 0  1.647462076974085 0.3 0  1.622088043536933 0.3 0  1.5967981978949 0.3 0  1.571592267767068 0.3 0  1.546469970305736 0.3 0  1.521431023814044 0.3 0  1.496475156230927 0.3 0  1.471602093687753 0.3 0  1.446811560490646 0.3 0  1.422103279101731 0.3 0  1.397476971708191 0.3 0  1.37293238939876 0.3 0  1.348469231419202 0.3 0  1.324087248732772 0.3 0  1.299786165921677 0.3 0  1.275565710847046 0.3 0  1.251425617644257 0.3 0  1.227365618676339 0.3 0  1.203385446174014 0.3 0  1.179484853067473 0.3 0  1.155663548773374 0.3 0  1.131921292279077 0.3 0  1.108257802159295 0.3 0  1.084672829009693 0.3 0  1.061166115303374 0.3 0  1.037737392995421 0.3 0  1.01438640299116 0.3 0  0.991112899770314 0.3 0  0.9679166155523955 0.3 0  0.944797284182564 0.3 0  0.921754678526042 0.3 0  0.8987885143602501 0.3 0  0.8758985548820624 0.3 0  0.8530845484099929 0.3 0  0.8303462351786988 0.3 0  0.8076833651172373 0.3 0  0.7850956864865304 0.3 0  0.7625829601354557 0.3 0  0.7401449314598274 0.3 0  0.717781337993959 0.3 0  0.6954919649675473 0.3 0  0.6732765357561226 0.3 0  0.6511348120768439 0.3 0  0.6290665642016573 0.3 0  0.6070715355430467 0.3 0  0.5851494825775325 0.3 0  0.5633001690203812 0.3 0  0.5415233562273221 0.3 0  0.5198187909431873 0.3 0  0.4981862401387795 0.3 0  0.4766254686134248 0.3 0  0.4551362360485234 0.3 0  0.4337182975262159 0.3 0  0.4123714223228037 0.3 0  0.3910953802377493 0.3 0  0.3698899313205595 0.3 0  0.3487548463710963 0.3 0  0.3276898864081783 0.3 0  0.3066948129116018 0.3 0  0.2857694003037476 0.3 0  0.2649134227095047 0.3 0  0.2441266417321288 0.3 0  0.2234088223399122 0.3 0  0.2027597568977288 0.3 0  0.1821792020676698 0.3 0  0.1616669305402443 0.3 0  0.1412227158799362 0.3 0  0.12084633013886 0.3 0  0.1005375673448281 0.3 0  0.08029618164595353 0.3 0  0.06012194778526769 0.3 0  0.04001466495039718 0.3 0  0.01997408913631205 0.3 0  0 0.2800000000000553 0  0 0.2600000000001105 0  0 0.2400000000001658 0  0 0.2200000000002211 0  0 0.2000000000002764 0  0 0.1800000000002244 0  0 0.1600000000001691 0  0 0.140000000000115 0  0 0.1200000000000564 0  1.13346801534201 0.01255848438672509 0  1.003577645172735 0.09351054173913405 0  0.9777559943702486 0.1034978156913738 0  0.9524533750752109 0.1040889939962738 0  0.9296242411226409 0.1041520033606139 0  0.9046110503652111 0.104409422380137 0  0.8777709649694228 0.1053360318797398 0  0.8483859145648608 0.1061007868330701 0  0.8162363822948977 0.1052777104363292 0  0.7893110024210437 0.1060761643971561 0  0.7587949382612539 0.1067265405088633 0  0.7280603867732535 0.1069398153264939 0  0.6947001989413015 0.1075609887579097 0  0.6590363283767549 0.1076715322596598 0  0.6210028614493155 0.1072970410408442 0  1.1953125 0.01353164693413185 0  1.258193991486058 0.01269648635163345 0  1.3201967268638 0.01407907077719561 0  1.383538555392096 0.01434101079053473 0  1.445312500000001 0.01303671693628424 0  1.508925448095738 0.01398525724792267 0  0.9939176689634008 0.1034638089837981 0  1.120967497222226 0.2796788492172345 0  1.572835902117391 0.01424132418857359 0  1.637573277451887 0.01212536916586023 0  1.709730776795181 0.01466855431023635 0  1.005631976950563 0.07074019818158772 0  1.784944696816299 0.01454708406461822 0  0.5805605730631225 0.1101465090472147 0  1.855621181165637 0.01550931272897607 0  0.5366111276616774 0.1096761308243709 0  1.935200147913231 0.01760344159641829 0  1.214922267975168 0.2799787705802257 0  1.31178773425331 0.2792
[...]
<PointData  Scalars="pressure"> 
<DataArray  type="Float64"  Name="pressure"  format="ascii">1.5523722756113936e-01  -1.6611689858518475e-01  -2.1196470919702556e-01  -1.5936894353644745e-01  -3.7484462262108414e-02  0.0000000000000000e+00  0.0000000000000000e+00  1.5524522999406024e-01  1.4931110578938783e-01  1.4348046547578119e-01  1.3774373666008799e-01  1.3209939383581498e-01  1.2654592119356586e-01  1.2108183835430820e-01  1.1570571153257000e-01  1.1041606508332318e-01  1.0521150383680958e-01  1.0009063752097333e-01  9.5052055909767577e-02  9.0094407574936516e-02  8.5216377627013687e-02  8.0416595778759217e-02  7.5693761095350851e-02  7.1046661783107895e-02  6.6473885805726232e-02  6.1974241403885633e-02  5.7546481479125791e-02  5.3189292983521791e-02  4.8901510957482346e-02  4.4682005527361256e-02  4.0529404016435983e-02  3.6442627738479151e-02  3.2420368599148930e-02  2.8461525804549082e-02  2.4565053691356618e-02  2.0729659723381547e-02  1.6954147618811175e-02  1.3237464697118704e-02  9.5784657403807424e-03  5.9759352140769800e-03  2.4288767305857295e-03  -1.0639742975107995e-03  -4.5036499245346652e-03  -7.8913529906488571e-03  -1.1228174321680905e-02  -1.4514781058384593e-02  -1.7753085903057908e-02  -2.0943682484876842e-02  -2.4087719782988140e-02  -2.7186521951617363e-02  -3.0241132584415284e-02  -3.3251970153308261e-02  -3.6221216548427020e-02  -3.9149334255897970e-02  -4.2037489244576655e-02  -4.4886863430407251e-02  -4.7698478781749654e-02  -5.0473426314863713e-02  -5.3212946814481438e-02  -5.5918004833852397e-02  -5.8589605934417872e-02  -6.1228742985494806e-02  -6.3837101155147735e-02  -6.6415043857384851e-02  -6.8963921048849783e-02  -7.1484398555831247e-02  -7.3978680603103933e-02  -7.6447167121641998e-02  -7.8890084369722085e-02  -8.1309318688221485e-02  -8.3706572305900298e-02  -8.6081458640957870e-02  -8.8436247434929338e-02  -9.0771686453875317e-02  -9.3088062295174745e-02  -9.5387111063596541e-02  -9.7669797078873119e-02  -9.9937129184488174e-02  -1.0219102251663560e-01  -1.0443157772983523e-01  -1.0665926214434096e-01  -1.0887485219294842e-01  -1.1108218825942638e-01  -1.1328025182466997e-01  -1.1546982797214965e-01  -1.1765304273837442e-01  -1.1983037689922479e-01  -1.2200294113912891e-01  -1.2417205904219801e-01  -1.2633992770096100e-01  -1.2850714349510642e-01  -1.3067409987189252e-01  -1.3284363882422726e-01  -1.3501695584900342e-01  -1.3719554955248522e-01  -1.3938128944390138e-01  -1.4157590438688408e-01  -1.4378170113037644e-01  -1.4600118735463830e-01  -1.4823726791079547e-01  -1.5049347346846886e-01  -1.5277197723072442e-01  -1.5508009234254116e-01  -1.5741899058459438e-01  -1.5983593158810319e-01  -1.6207983690085051e-01  -1.6694406725446340e-01  -1.6864449217033561e-01  -1.7282532439455983e-01  -1.6821549833890886e-01  -2.0062846629015205e-01  -1.7972338990212755e-01  -1.7320745878790331e-01  -1.6844093105386268e-01  -1.6521123222077902e-01  -1.6278249576328921e-01  -1.6095978904556912e-01  -1.5962085407285154e-01  -1.5881389724208736e-01  -1.5861210479279578e-01  -1.5901596231971829e-01  -1.5981079839934859e-01  -1.6018342920254702e-01  -1.5997244244108860e-01  -1.5929299271516512e-01  -1.5823519837753336e-01  -1.5684219390012966e-01  -1.5509819585314738e-01  -1.5298984773197460e-01  -1.5054620243342892e-01  -1.4778465044025452e-01  -1.4470909195081808e-01  -1.4133345041444587e-01  -1.3766910851873954e-01  -1.3372842345326100e-01  -1.2953240230641347e-01  -1.2509459174995807e-01  -1.2042805249768715e-01  -1.1555193982237134e-01  -1.1048606925749507e-01  -1.0524221479879210e-01  -9.9851022865153863e-02  -9.4332437542461942e-02  -8.8703192754792340e-02  -8.2995594873412931e-02  -7.7228741339235213e-02  -7.1434371821092926e-02  -6.5635128747603563e-02  -5.9855074003131337e-02  -5.4126856045916640e-02  -4.8472206427832433e-02  -4.2917812127367810e-02  -3.2097683733675081e-02  -2.6842740102902510e-02  -2.1729498214194148e-02  -1.6791816088669753e-02  -1.2055782641874051e-02  -7.5238718232261527e-03  -3.2202039200778911e-03  8.5042341902872426e-04  4.6399563396932195e-03  8.1747735088543855e-03  1.1457100723819991e-02  1.4467350012343309e-02  1.7209525706058784e-02  1.9692970371168683e-02  2.1923580810899134e-02  2.3908047553194620e-02  2.5663521884501231e-02  2.7192333121471759e-02  2.8509030197482708e-02  2.9645643422948578e-02  3.0591247367542894e-02  3.1376015721021021e-02  3.2013649342371893e-02  3.2511804982446824e-02  3.2891527684404676e-02  3.3156576389277409e-02  3.3336677479788954e-02  3.3422397126189413e-02  3.3433325063401666e-02  3.3373647013546032e-02  3.3250464885414562e-02  3.3072307362638199e-02  3.2847663370923617e-02  3.2580112842205966e-02  3.2270159571311678e-02  3.1924461493912960e-02  3.1543532793258944e-02  3.1129835006617153e-02  3.0684277925738478e-02  3.0207133708165603e-02  2.9698615470361830e-02  2.9158474916257070e-02  2.8585344527774729e-02  2.7979292693420418e-02  2.7337710485280442e-02  2.6659132155217646e-02  2.5944396921979283e-02  2.5188665237699311e-02  2.4389983753995183e-02  2.3552377527519326e-02  2.2666590837894074e-02  2.1739324079278685e-02  2.0760505486668041e-02  1.9738546125380958e-02  1.8665978399245164e-02  1.7539094653093661e-02  1.6368114389527837e-02  1.5139362328298536e-02  1.3863771858892520e-02  1.2535531653436805e-02  1.1153615853671821e-02  9.7182393452348945e-03  8.2314311684194442e-03  6.6962342420474512e-03  5.1032595039097158e-03  3.4703299181676451e-03  1.7814469827740385e-03  0.0000000000000000e+00  0.0000000000000000e+00  0.0000000000000000e+00  0.0000000000000000e+00  0.0000000000000000e+00  0.0000000000000000e+00  0.0000000000000000e+00  0.0000000000000000e+00  0.0000000000000000e+00  1.9292976882095817e-03  3.7322957431998515e-03  5.5090813980362384e-03  7.2333605565263097e-03  8.9089718983425305e-03  1.0534757490100865e-02  1.2109900703758343e-02  1.3632737028786866e-02  1.5100438426772080e-02  1.6510915325105666e-02  1.7860229176918992e-02  1.9146026046096883e-02  2.0363321645639296e-02  2.1509225808297075e-02  2.2578968177451565e-02  2.3566166832527217e-02  2.4470428921187174e-02  2.5280753886233544e-02  2.5992517695080125e-02  2.6599603351890828e-02  2.7095197185958774e-02  2.7472563796369448e-02  2.7726136314399026e-02  2.7845291778972693e-02  2.7827990802248664e-02  2.7663133074223779e-02  2.7348459157560477e-02  2.6872853706047459e-02  2.6231516382997828e-02  2.5421983603297529e-02  2.4433821482970762e-02  2.3261558119763198e-02  2.1919837219445810e-02  2.0393317091874297e-02  1.8656290209810081e-02  1.6747790744833388e-02  1.4642694529276967e-02  1.2341513466455031e-02  9.8439611167506508e-03  7.1574541828501531e-03  4.2719825008487597e-03  1.2008904554563727e-03  -2.0633469343162578e-03  -5.5100293605768206e-03  -9.1491628610544575e-03  -1.2965139759231650e-02  -1.6957382298710588e-02  -2.1116978679145717e-02  -2.5445872661807992e-02  -2.9930120340111308e-02  -3.4567100049853569e-02  -3.9345573278482662e-02  -4.4253342974885361e-02  -4.9282236505362766e-02  -5.4417126605439015e-02  -5.9636595296729107e-02  -6.4886641456804506e-02  -7.0207478829119818e-02  -7.5521162418822813e-02  -8.0772350110747043e-02  -8.5963203999084900e-02  -9.1026186040244289e-02  -9.5943429054713814e-02  -1.0061250459948724e-01  -1.0502870030482428e-01  -1.0908584276493352e-01  -1.1277251184222899e-01  -1.1598195531882093e-01  -1.1871761712741921e-01  -1.2084909236295424e-01  -1.2238946595165708e-01  -1.2326402334923045e-01  -1.2333800908033922e-01  -1.2277592223431553e-01  -1.2142926456080778e-01  -1.1929540270097151e-01  -1.1648236979438720e-01  -1.1300438609209613e-01  -1.0898667758847076e-01  -1.0449802310888875e-01  -9.9534297224579876e-02  -9.4240515676985756e-02  -8.8658078959334988e-02  -8.2888076314074272e-02  -7.6934985342480208e-02  -7.0829505522360073e-02  -6.4629300373795009e-02  -5.8348859368793790e-02  -5.2000419304726070e-02  -4.5610119021657007e-02  -3.9183635180925672e-02  -3.2741277155928131e-02  -2.6286311750742940e-02  -1.9821611694453175e-02  -1.3359866172482231e-02  -6.9024663036832369e-03  -4.5077284935832223e-04  5.9913495734015216e-03  1.2420460692111890e-02  1.8835261966485595e-02  2.5235170946720821e-02  3.1618481488833484e-02  3.7984976845509909e-02  4.4332864984284064e-02  5.0662531226289255e-02  5.6973164155400206e-02  6.3264455642293396e-02  6.9536292110199655e-02  7.5788325128606671e-02  8.2020491218839753e-02  8.8232744465473398e-02  9.4424971472811189e-02  1.0059713529482361e-01  1.0674922903924255e-01  1.1288125803767525e-01  1.1899319138696135e-01  1.2508510085011398e-01  1.3115700158248442e-01  1.3720891839805846e-01  1.4324090501013639e-01  1.4925299230358935e-01  1.5524519908271942e-01  1.5524486648494462e-01  1.5524405417943651e-01  1.5524277903966513e-01  1.5524123015318489e-01  1.5523967966838489e-01  1.5523840186343613e-01  1.5523758414525096e-01  1.5523725274251027e-01  -1.5140285848748533e-01  -1.8398343108765214e-01  -1.6371753525853272e-01  -1.4941901267098931e-01  -1.3840546170661913e-01  -1.2751085321133479e-01  -1.1674950914620889e-01  -1.0572724530173842e-01  -9.4312237553736258e-02  -8.5144056550059799e-02  -7.5058638599826893e-02  -6.5145574103332424e-02  -5.4589625116406880e-02  -4.3471782951740277e-02  -3.1750132127159186e-02  -1.3936115713735558e-01  -1.2263996124004604e-01  -1.0269516444372315e-01  -8.0059605603068282e-02  -5.7271667303891292e-02  -3.4830814036575668e-02  -1.7698881337223571e-01  -1.2101049812757850e-01  -1.4818545279698683e-02  1.8237107692664620e-03  1.5431790741638666e-02  -1.6467153862491374e-01  2.4709475973778823e-02  -1.9393471248342484e-02  2.9753323521167541e-02  -6.0456180141449031e-03  3.2486828766164731e-02  -1.1036591292803875e-01  -9.2858358927568579e-02  3.3307032280557806e-02  -7.2439940421886340e-02  7.7772241509109722e-03  -4.6379041814917858e-02  3.2878258265619777e-02  2.2645736506285003e-02  -1.5705168758389698e-01  3.1666677185029676e-02  -2.3063898728084196e-02  -1.2259643793465093e-01  3.8053643002040123e-02  2.9904799358801283e-02  -3.8329123279182993e-04  5.5554783610249056e-02  8.3617371519108807e-03  2.7594345593910725e-02  1.5785136111985846e-02  7.2847749830034031e-02  -1.1757282779596732e-01  2.4804485858131019e-02  2.1139092435767538e-02  -1.0661799408262934e-01  2.4926865345618329e-02  2.1230606105228117e-02  -9.1437107479616794e-02  9.3049111003566151e-02  1.0706666586846594e-01  -1.0958898017197429e-02  1.8071971943696363e-02  1.4326553275094146e-02  2.7035937620770185e-02  -7.4082339409269338e-02  2.7678130295119507e-02  -1.5623073075345034e-01  -4.9243334551309123e-02  2.6748372072853934e-02  1.2451876091209849e-01  -2.9551184130107554e-02  1.0407367033813338e-02  2.3953130389199731e-02  -1.0010153687096783e-02  1.5795073557291123e-02  2.0869785751633400e-02  4.7498403286020840e-02  1.7128730333011166e-02  6.6456689716626438e-02  8.5232629846641775e-02  1.2829018023273062e-02  1.1683154716025258e-01  1.6202134581080072e-03  1.4966134378755236e-01  -1.5981274427695097e-01  8.1697839129908755e-03  5.7764321898195192e-03  1.3463395515529220e-01  -1.7118389079863380e-01  -1.5913848587034157e-01  -1.1673400456308231e-01  -6.1394780156091761e-02  2.2771221438710964e-03  2.8094934039903197e-02  1.3497309812203037e-01  -3.7083906707356395e-02  -6.1556078929705688e-02  -8.2746891196202252e-02  -1.0216142049634343e-01  8.3110958530488999e-02  2.7645772419161930e-02  6.3936183036507901e-02  9.7473628082784453e-02  2.5550844182629939e-02  2.3103438144475900e-02  4.6231589472339352e-02  2.6193595246423805e-02  2.8830998614154810e-02  3.0690106946728541e-02  3.0850914680362860e-02  3.2353424101143009e-02  3.3222850341336055e-02  3.3111545403658543e-02  -2.4660278958345359e-02  1.5093842028473034e-02  3.1410062491502924e-02  2.7553022183045985e-02  6.9888094163233464e-04  2.0673699797388326e-02  9.4396033332837647e-03  -5.6196418818964490e-03  1.3509950175070154e-03  -1.3236502242614698e-02  -2.5189955530533853e-02  1.5000085616573430e-01  -3.7376189671414227e-02  -4.9098999929824215e-02  -5.9926827926978524e-02  -7.0340762792152470e-02  -8.0178900927403082e-02  -8.9533076040692286e-02  -1.4586091881688007e-01  -1.0111397304646616e-01  -1.1224141518648929e-01  -1.2317013091464660e-01  -1.3157127015975464e-01  -1.3410558243850626e-01  -9.1865416491303878e-02  -1.1256035235742354e-01  -6.9628268548802913e-02  -4.6018459798844030e-02  -1.4502622490175565e-01  -1.6861014049949694e-01  1.6980229173904514e-03  1.4950478869602199e-01  4.5509122831574869e-03  -1.5957936559952995e-01  1.5025262224525535e-01  1.3776358833809408e-03  1.4614921784585108e-01  -1.5954315275064410e-01  -1.5920236691557493e-01  -1.5873573043216913e-01  -1.5924312016725922e-01  -1.5875913311786252e-01  -1.5959492988816557e-01  -1.5892881075741236e-01  -1.6004850483777025e-01  -1.5921144544326565e-01  -1.6036666551740167e-01  -1.5941064434626168e-01  -1.6028703339649195e-01  -1.5913443363723154e-01  -1.5964916735603196e-01  -1.5835683733036782e-01  -1.5856536738064100e-01  -1.5709334624165872e-01  -1.5710328943683965e-01  -1.5545711639159843e-01  -1.5511164088406751e-01  -1.5314228963924711e-01  -1.5683570050487411e-01  -1.5359455075468906e-01  -1.5088592461105951e-01  -1.5421488899584943e-01  -1.5624902819642414e-01  -1.5112082110972178e-01  -1.4825697046789998e-01  -1.4841764403495419e-01  -1.4518294039201557e-01  -1.4522831031262917e-01  -1.4167148444156152e-01  -1.4163132179350335e-01  -1.3799502899697544e-01  -1.3762271073093779e-01  -1.3325927209648392e-01  -1.3298709953116222e-01  -1.2879636058068586e-01  -1.2810456293657638e-01  -1.2375568471248623e-01  -1.2282065669272815e-01  -1.1839035159732622e-01  -1.1722431727043696e-01  -1.1276320106770958e-01  -1.1132565783599493e-01  -1.0690526525423324e-01  -1.0516042580133819e-01  -1.0083669765766329e-01  -9.8796547594002720e-02  -9.4636036558930478e-02  -9.2255348360062758e-02  -8.8345282563026775e-02  -8.5489446820500442e-02  -1.5259829576910833e-01  -1.5453139428128868e-01  -8.1988530091793355e-02  -7.8704457888189985e-02  -7.5633830410494887e-02  -7.2352581632519772e-02  -6.9395912153604550e-02  -6.5754754905383461e-02  -6.3268859808673722e-02  -5.9297272892627220e-02  -1.4723333688247311e-01  -5.7364899081683005e-02  -5.2971176710120992e-02  -5.1426984165839518e-02  -4.6800253699617142e-02  -4.5849588394475761e-02  -4.0919168348704418e-02  -1.5008990286235319e-01  -1.5227617521557388e-01  -1.6078991190140282e-01  -4.0460429603915903e-02  -3.5252147037498488e-02  -3.5356358183972932e-02  -2.9883253186586765e-02  -3.0518926827652729e-02  -2.4839427699953689e-02  -1.5772946425766635e-01  -2.5963344376704507e-02  -2.0088633732487315e-02  -1.3738740818792866e-01  -2.1673749368999930e-02  -1.5673547086972568e-02  -1.7677334567197375e-02  -1.1583456547882650e-02  -1.3888121558044081e-02  -7.8070808649301458e-03  -1.5771696082368447e-01  -1.2374591319872097e-01  -1.0433010296257405e-02  -4.3413441805398344e-03  -1.4670722139797873e-01  -1.4822630004349563e-01  -1.4488820960159812e-01  -1.0768647610962574e-01  -7.1642337517775203e-03  -1.0256769049501019e-03  -4.2335858888995640e-03  1.9419311960483287e-03  -1.4469725447562880e-03  4.5039685064137396e-03  -3.5843732236265836e-02  1.9124083963375671e-03  -1.9225975392670958e-02  -5.5045633745303066e-02  1.1352806942241959e-03  6.8517245146526261e-03  1.0229095146541082e-02  1.2403704443778123e-02  9.0495534177202595e-03  1.4363383723647359e-02  1.1124305011523308e-02  1.6192504489046605e-02  1.2995555724936374e-02  1.7780908743367886e-02  1.4708923200227490e-02  1.9247724260689172e-02  1.6322424097095032e-02  2.0534546479874807e-02  1.7719512801221731e-02  2.1712144042262189e-02  1.9116482568388188e-02  2.2883758441834934e-02  2.0360955730702093e-02  2.3843262182228996e-02  2.1533013437266883e-02  2.4673675680894781e-02  2.2466136618019932e-02  2.5429513217835206e-02  -7.5167974231231990e-02  -9.0537843781764368e-02  2.3420027705460773e-02  2.6063030810752823e-02  2.4321805587341611e-02  2.6665720119592617e-02  -1.4444980908487129e-01  -1.0910904597225508e-01  2.5121186490827327e-02  2.7157777941930861e-02  -1.2651544450605726e-01  -7.3147548959543923e-02  -1.4241442771830215e-01  -1.4356001889137360e-01  -1.5021950955473420e-01  -1.4443072723431691e-01  -1.5015091297825936e-01  -1.4462414174950033e-01  -1.5082456352115947e-01  -1.4430484468378676e-01  -1.4881290155981569e-01  -1.4292581399874008e-01  -1.4759097558238449e-01  -1.4107557038000187e-01  -1.4419917412883049e-01  -1.3846527605334691e-01  -1.4084546388018390e-01  -1.3557174932422031e-01  -1.3724752553907907e-01  -1.3232019830048125e-01  -1.3350695586081163e-01  -1.2891690374392287e-01  -1.2967041250005523e-01  -1.2536922532723019e-01  -1.2581585169683751e-01  -1.2176644178663722e-01  -1.2195113064564597e-01  -1.1816838645493247e-01  -1.1776176430902234e-01  -1.1426265633608400e-01  -1.1429963033312268e-01  -1.1069384344588089e-01  -1.1055959053838524e-01  -1.0708278748397765e-01  -1.0695603909459461e-01  -1.0351280240349639e-01  -1.0310287528932301e-01  -9.9872803134041260e-02  -1.3295895905806376e-01  -1.1024314530291973e-01  -1.2417930327815739e-01  -9.9384076040681502e-02  -9.6153284957537263e-02  -9.6391153443921351e-02  -9.2857202840847711e-02  -9.2392778992426247e-02  -8.9242663795118068e-02  -8.8586341225276657e-02  -8.5567605346069414e-02  -8.4794745978330616e-02  -8.1830352160343303e-02  -8.8968839888212095e-02  -1.5549783099205752e-01  -1.4980032569150431e-01  -8.1064254797956453e-02  -7.8038145197993736e-02  -7.8756656560694444e-02  -7.4976045172261460e-02  -7.4222450578604465e-02  -7.1216225597737423e-02  -7.0349211360696870e-02  -6.7428458683224848e-02  -1.4222154009366592e-01  -7.1705948362754068e-02  -6.6499204578778975e-02  -6.3654932894749827e-02  -1.3390645201274465e-01  -6.2763635540807605e-02  -5.9823895463931909e-02  -6.0985061978800645e-02  -5.6836648735518476e-02  -5.5884196697767410e-02  -5.2789200440229736e-02  -5.3697004266196134e-02  -4.9655437883712718e-02  -4.8759013911532555e-02  -4.5621357668931425e-02  -4.4712742087272987e-02  -4.1493043045614894e-02  -4.2425595235877071e-02  -3.8303108844363401e-02  -3.7337830471122609e-02  -3.4174917514588871e-02  -3.3245573590932116e-02  -3.0063379484921226e-02  -1.3930951100977809e-01  -1.1034441106960628e-01  -1.2559059577169149e-01  -2.9225783793519037e-02  -2.5983363030413962e-02  -2.6832426461897051e-02  -2.2600524554114643e-02  -2.1754694388134082e-02  -1.8374052796937559e-02  -2.3448209886150664e-02  2.5752445742767690e-02  2.7564822280154264e-02  2.6324063520161013e-02  2.7904509847741094e-02  2.6830694026711798e-02  2.8173407763590314e-02  -9.1761111471163087e-02  -4.5637824965153943e-02  -1.6062262266519045e-01  -1.7494499508870057e-02  -1.4182153240077102e-02  -1.0248330400335570e-01  2.3543251232378447e-02  2.7443140894022024e-02  1.5259290253986531e-02  2.7246953363874882e-02  2.8362731637479228e-02  2.9375883085971867e-02  2.9350263362652028e-02  2.8478371685202366e-02  2.9272261454131851e-02  2.8527004106100096e-02  2.9135605589450449e-02  2.8494203114239312e-02  2.8933426580739309e-02  2.8389568667473792e-02  2.8673091193780611e-02  2.8202015383233421e-02  2.8341737106787893e-02  2.7939146898531299e-02  2.7951283874198516e-02  2.7603665304110556e-02  2.7499825531979934e-02  2.7199291852666483e-02  2.6989354035581274e-02  2.6715026714804069e-02  2.6405122343973953e-02  2.6149799340633030e-02  2.5769540524422419e-02  2.5508704763475359e-02  2.5047939154585412e-02  2.4807701834171948e-02  2.4286079142873368e-02  2.4012908351378360e-02  2.3439251434875467e-02  2.3164044773089483e-02  2.2545059656980955e-02  2.9092118100944593e-02  -3.9302894037719929e-02  -7.3389762920027107e-02  -1.3178878479510013e-02  -9.8803655947059914e-03  -1.0873947529202815e-02  -6.4217457954593073e-03  -7.4594724446768812e-03  -2.9047233912382177e-03  -1.9858679490007626e-03  1.5501919717368206e-03  2.5899508145253059e-03  6.0977800808460977e-03  5.1553710340510326e-03  9.6906142543505547e-03  1.0491871913205959e-02  1.4191084297068278e-02  1.4979268047754140e-