<?xml version="1.0"?>
<VTKFile type="UnstructuredGrid"  version="0.1"  >
<UnstructuredGrid>
<Piece  NumberOfPoints="2886" NumberOfCells="5412">
<Points>
<DataArray  type="Float64"  NumberOfComponents="3"  format="ascii">0 0.1 0  0.98 0.1 0  1 0.1 0  1 0 0  1.5 0 0  3 0 0  3 0.3 0  0 0.3 0  0.01975375321854102 0.1 0  0.03918897458218897 0.1 0  0.05831079002627837 0.1 0  0.07712425666319796 0.1 0  0.0956343475259058 0.1 0  0.1138459546796227 0.1 0  0.1317638870668193 0.1 0  0.1493928840275937 0.1 0  0.1667376092280033 0.1 0  0.1838026357802664 0.1 0  0.2005924801287244 0.1 0  0.2171115811543574 0.1 0  0.2333643037107681 0.1 0  0.2493549444060462 0.1 0  0.2650877293306821 0.1 0  0.2805668058011438 0.1 0  0.2957962848620976 0.1 0  0.3107801766802674 0.1 0  0.3255224447361181 0.1 0  0.3400269848175519 0.1 0  0.3542976327080778 0.1 0  0.3683381609158136 0.1 0  0.3821522744564845 0.1 0  0.3957436316838916 0.1 0  0.4091158196437086 0.1 0  0.4222723742184605 0.1 0  0.4352167733293057 0.1 0  0.4479524348643424 0.1 0  0.4604827295467524 0.1 0  0.4728109659990664 0.1 0  0.4849404035409129 0.1 0  0.4968742471455402 0.1 0  0.508615651843175 0.1 0  0.520167721130924 0.1 0  0.5315335063628542 0.1 0  0.5427160117228604 0.1 0  0.5537181940261912 0.1 0  0.564542961924507 0.1 0  0.575193173270606 0.1 0  0.5856716438765114 0.1 0  0.5959811458006617 0.1 0  0.6061243988680743 0.1 0  0.6161040893285659 0.1 0  0.6259228503970299 0.1 0  0.6355832809287655 0.1 0  0.6450879281079505 0.1 0  0.6544393102991295 0.1 0  0.663639896558931 0.1 0  0.6726921201956305 0.1 0  0.6815983691630338 0.1 0  0.6903610031396646 0.1 0  0.6989823343332418 0.1 0  0.7074646404270378 0.1 0  0.7158101645005117 0.1 0  0.7240211149852543 0.1 0  0.7320996585612525 0.1 0  0.7400479319727645 0.1 0  0.7478680336617921 0.1 0  0.755562036504958 0.1 0  0.7631319665092091 0.1 0  0.7705798279317605 0.1 0  0.777907588066146 0.1 0  0.7851171851013118 0.1 0  0.7922105226004981 0.1 0  0.7991894774550319 0.1 0  0.8060558928136696 0.1 0  0.812811583201334 0.1 0  0.8194583352091183 0.1 0  0.8259979035038147 0.1 0  0.8324320194413813 0.1 0  0.8387623808293405 0.1 0  0.8449906627004957 0.1 0  0.8511185094880469 0.1 0  0.8571475426008311 0.1 0  0.8630793533568246 0.1 0  0.8689155114558531 0.1 0  0.8746575581239063 0.1 0  0.8803070109173519 0.1 0  0.885865363938836 0.1 0  0.8913340851680313 0.1 0  0.8967146206523592 0.1 0  0.9020083930695622 0.1 0  0.9072167995950768 0.1 0  0.9123412183131177 0.1 0  0.9173830029719022 0.1 0  0.9223434865647732 0.1 0  0.9272239785872722 0.1 0  0.9320257720706087 0.1 0  0.9367501330378739 0.1 0  0.9413983102716995 0.1 0  0.9459715351562933 0.1 0  0.9504710127113115 0.1 0  0.9548979346500661 0.1 0  0.9592534708344373 0.1 0  0.9635387708980176 0.1 0  0.9677549682252325 0.1 0  0.971903177251235 0.1 0  0.9759844952956497 0.1 0  0.9840000000000086 0.1 0  0.987999999999974 0.1 0  0.9919999999999393 0.1 0  0.9959999999999913 0.1 0  1 0.09591793123533533 0  1 0.09133596463859224 0  1 0.08619288104391448 0  1 0.08041996484521211 0  1 0.07394008421771697 0  1 0.06666666567302955 0  1 0.05850252932209174 0  1 0.04933859630113544 0  1 0.03905242821848202 0  1 0.02750659386753798 0  1 0.01454683679239736 0  1.015625 0 0  1.03125 0 0  1.046875 0 0  1.0625 0 0  1.078125 0 0  1.09375 0 0  1.109375 0 0  1.125 0 0  1.140625 0 0  1.15625 0 0  1.171875 0 0  1.1875 0 0  1.203125 0 0  1.21875 0 0  1.234375 0 0  1.25 0 0  1.265625 0 0  1.28125 0 0  1.296875 0 0  1.3125 0 0  1.328125 0 0  1.34375 0 0  1.359375 0 0  1.375 0 0  1.390625 0 0  1.40625 0 0  1.421875 0 0  1.4375 0 0  1.453125 0 0  1.46875 0 0  1.484375 0 0  1.515920751924515 0 0  1.531989369316721 0 0  1.54820720925872 0 0  1.564575665560501 0 0  1.581096138674279 0 0  1.597770029901263 0 0  1.614598783332311 0 0  1.631583831055205 0 0  1.64872661129721 0 0  1.666028606716533 0 0  1.683491276608443 0 0  1.701116134125304 0 0  1.718904673324128 0 0  1.736858414799339 0 0  1.754978895814663 0 0  1.773267661782904 0 0  1.791726281103402 0 0  1.810356325314689 0 0  1.8291593848892 0 0  1.848137076690385 0 0  1.867291007717254 0 0  1.886622833871288 0 0  1.90613418642363 0 0  1.925826753299799 0 0  1.945702199101513 0 0  1.96576223584749 0 0  1.986008569283268 0 0  2.006442931928877 0 0  2.02706707547783 0 0  2.047882750887917 0 0  2.06889175187935 0 0  2.090095860038271 0 0  2.111496891648636 0 0  2.133096679109554 0 0  2.154897066851056 0 0  2.176899916687499 0 0  2.199107102752146 0 0  2.22152053937028 0 0  2.244142122958061 0 0  2.266973806444078 0 0  2.290017523268154 0 0  2.313275249499252 0 0  2.336748971745516 0 0  2.360440702338606 0 0  2.384352453384031 0 0  2.408486280477412 0 0  2.432844240041185 0 0  2.457428414757088 0 0  2.482240901796653 0 0  2.507283830121838 0 0  2.532559332080812 0 0  2.558069568787417 0 0  2.583816724966441 0 0  2.60980299606584 0 0  2.636030600971886 0 0  2.662501790984011 0 0  2.689218818279327 0 0  2.716183964547616 0 0  2.743399548861297 0 0  2.77086788244719 0 0  2.798591312896326 0 0  2.826572223178268 0 0  2.854812990138617 0 0  2.883316031690714 0 0  2.912083780657189 0 0  2.941118704633482 0 0  2.970423276998917 0 0  3 0.02999999999994495 0  3 0.05999999999987042 0  3 0.089999999999783 0  3 0.119999999999701 0  3 0.149999999999619 0  3 0.179999999999692 0  3 0.2099999999997737 0  3 0.2399999999998511 0  3 0.2699999999999185 0  2.970138294777171 0.3 0  2.940375666438236 0.3 0  2.910711782853056 0.3 0  2.881146331305122 0.3 0  2.851678975030285 0.3 0  2.822309388626621 0.3 0  2.793037250095074 0.3 0  2.76386223529133 0.3 0  2.734784017903872 0.3 0  2.705802289276642 0.3 0  2.676916713794697 0.3 0  2.648126987654635 0.3 0  2.619432780406184 0.3 0  2.590833779385199 0.3 0  2.562329669847737 0.3 0  2.533920134950189 0.3 0  2.505604855727852 0.3 0  2.477383539822502 0.3 0  2.449255847639465 0.3 0  2.421221492569094 0.3 0  2.393280152486815 0.3 0  2.36543151914496 0.3 0  2.337675285481809 0.3 0  2.310011142385583 0.3 0  2.282438797441587 0.3 0  2.254957931061538 0.3 0  2.227568248063605 0.3 0  2.200269436651085 0.3 0  2.173061204949961 0.3 0  2.145943251515011 0.3 0  2.118915272469994 0.3 0  2.091976978084957 0.3 0  2.065128060700849 0.3 0  2.038368218849433 0.3 0  2.01169717777258 0.3 0  1.985114624111908 0.3 0  1.958620267850966 0.3 0  1.93221382054972 0.3 0  1.905894991850698 0.3 0  1.879663489459713 0.3 0  1.853519019126419 0.3 0  1.827461291053897 0.3 0  1.801490031354372 0.3 0  1.775604937580312 0.3 0  1.74980572560258 0.3 0  1.724092118631866 0.3 0  1.698463829173586 0.3 0  1.672920575782554 0.3 0  1.647462076974085 0.3 0  1.622088043536933 0.3 0  1.5967981978949 0.3 0  1.571592267767068 0.3 0  1.546469970305736 0.3 0  1.521431023814044 0.3 0  1.496475156230927 0.3 0  1.471602093687753 0.3 0  1.446811560490646 0.3 0  1.422103279101731 0.3 0  1.397476971708191 0.3 0  1.37293238939876 0.3 0  1.348469231419202 0.3 0  1.324087248732772 0.3 0  1.299786165921677 0.3 0  1.275565710847046 0.3 0  1.251425617644257 0.3 0  1.227365618676339 0.3 0  1.203385446174014 0.3 0  1.179484853067473 0.3 0  1.155663548773374 0.3 0  1.131921292279077 0.3 0  1.108257802159295 0.3 0  1.084672829009693 0.3 0  1.061166115303374 0.3 0  1.037737392995421 0.3 0  1.01438640299116 0.3 0  0.991112899770314 0.3 0  0.9679166155523955 0.3 0  0.944797284182564 0.3 0  0.921754678526042 0.3 0  0.8987885143602501 0.3 0  0.8758985548820624 0.3 0  0.8530845484099929 0.3 0  0.8303462351786988 0.3 0  0.8076833651172373 0.3 0  0.7850956864865304 0.3 0  0.7625829601354557 0.3 0  0.7401449314598274 0.3 0  0.717781337993959 0.3 0  0.6954919649675473 0.3 0  0.6732765357561226 0.3 0  0.6511348120768439 0.3 0  0.6290665642016573 0.3 0  0.6070715355430467 0.3 0  0.5851494825775325 0.3 0  0.5633001690203812 0.3 0  0.5415233562273221 0.3 0  0.5198187909431873 0.3 0  0.4981862401387795 0.3 0  0.4766254686134248 0.3 0  0.4551362360485234 0.3 0  0.4337182975262159 0.3 0  0.4123714223228037 0.3 0  0.3910953802377493 0.3 0  0.3698899313205595 0.3 0  0.3487548463710963 0.3 0  0.3276898864081783 0.3 0  0.3066948129116018 0.3 0  0.2857694003037476 0.3 0  0.2649134227095047 0.3 0  0.2441266417321288 0.3 0  0.2234088223399122 0.3 0  0.2027597568977288 0.3 0  0.1821792020676698 0.3 0  0.1616669305402443 0.3 0  0.1412227158799362 0.3 0  0.12084633013886 0.3 0  0.1005375673448281 0.3 0  0.08029618164595353 0.3 0  0.06012194778526769 0.3 0  0.04001466495039718 0.3 0  0.01997408913631205 0.3 0  0 0.2800000000000553 0  0 0.2600000000001105 0  0 0.2400000000001658 0  0 0.2200000000002211 0  0 0.2000000000002764 0  0 0.1800000000002244 0  0 0.1600000000001691 0  0 0.140000000000115 0  0 0.1200000000000564 0  1.13346801534201 0.01255848438672509 0  1.003577645172735 0.09351054173913405 0  0.9777559943702486 0.1034978156913738 0  0.9524533750752109 0.1040889939962738 0  0.9296242411226409 0.1041520033606139 0  0.9046110503652111 0.104409422380137 0  0.8777709649694228 0.1053360318797398 0  0.8483859145648608 0.1061007868330701 0  0.8162363822948977 0.1052777104363292 0  0.7893110024210437 0.1060761643971561 0  0.7587949382612539 0.1067265405088633 0  0.7280603867732535 0.1069398153264939 0  0.6947001989413015 0.1075609887579097 0  0.6590363283767549 0.1076715322596598 0  0.6210028614493155 0.1072970410408442 0  1.1953125 0.01353164693413185 0  1.258193991486058 0.01269648635163345 0  1.3201967268638 0.01407907077719561 0  1.383538555392096 0.01434101079053473 0  1.445312500000001 0.01303671693628424 0  1.508925448095738 0.01398525724792267 0  0.9939176689634008 0.1034638089837981 0  1.120967497222226 0.2796788492172345 0  1.572835902117391 0.01424132418857359 0  1.637573277451887 0.01212536916586023 0  1.709730776795181 0.01466855431023635 0  1.005631976950563 0.07074019818158772 0  1.784944696816299 0.01454708406461822 0  0.5805605730631225 0.1101465090472147 0  1.855621181165637 0.01550931272897607 0  0.5366111276616774 0.1096761308243709 0  1.935200147913231 0.01760344159641829 0  1.214922267975168 0.2799787705802257 0  1.31178773425331 0.2792
[...]
<PointData  Scalars="pressure"> 
<DataArray  type="Float64"  Name="pressure"  format="ascii">1.6095035531399854e-01  -1.6485309991603406e-01  -2.1843427538750806e-01  -1.6256866298780071e-01  -4.2165407829377895e-02  0.0000000000000000e+00  0.0000000000000000e+00  1.6095704440953235e-01  1.5502423284910222e-01  1.4919360463536718e-01  1.4345690598359381e-01  1.3781261274378989e-01  1.3225921302524593e-01  1.2679522851220376e-01  1.2141922397090456e-01  1.1612973254898953e-01  1.1092535842634060e-01  1.0580471433947741e-01  1.0076639904538483e-01  9.5809064366299809e-02  9.0931396291163508e-02  8.6132037779051637e-02  8.1409693265691238e-02  7.6763145717839099e-02  7.2191012200200896e-02  6.7692099108116355e-02  6.3265168788103232e-02  5.8908931704745780e-02  5.4622225116582851e-02  5.0403919004800041e-02  4.6252683069916901e-02  4.2167435624712646e-02  3.8146906340498110e-02  3.4190000686188902e-02  3.0295673759619106e-02  2.6462676190955103e-02  2.2689841921949738e-02  1.8976128027442765e-02  1.5320416531727766e-02  1.1721533282193559e-02  8.1784898524303561e-03  4.6900761306268232e-03  1.2552791389043539e-03  -2.1270550237027629e-03  -5.4579842988861033e-03  -8.7382081097384986e-03  -1.1969467897968530e-02  -1.5152398779469573e-02  -1.8288095915685556e-02  -2.1377802233321024e-02  -2.4422522288416012e-02  -2.7422732474095234e-02  -3.0380388032907008e-02  -3.3295999203310271e-02  -3.6170663995822971e-02  -3.9005491416996135e-02  -4.1801455177716565e-02  -4.4559583375334763e-02  -4.7281028039192728e-02  -4.9966708114797871e-02  -5.2617574136843683e-02  -5.5234563456123500e-02  -5.7819191054644829e-02  -6.0371863752326164e-02  -6.2893810916441348e-02  -6.5385689479879688e-02  -6.7849431704135543e-02  -7.0285472207377797e-02  -7.2694088947645494e-02  -7.5076944028113143e-02  -7.7435544342581764e-02  -7.9769652650396053e-02  -8.2081234926129731e-02  -8.4370998394410382e-02  -8.6639253006113803e-02  -8.8887508413623167e-02  -9.1116636001779397e-02  -9.3327529863099029e-02  -9.5521835338492359e-02  -9.7699676154239135e-02  -9.9861511327857380e-02  -1.0200799170738294e-01  -1.0414231375431905e-01  -1.0626367182718684e-01  -1.0837271312922725e-01  -1.1047118218597766e-01  -1.1255945016724939e-01  -1.1463839664526625e-01  -1.1670903120117525e-01  -1.1877305452634306e-01  -1.2083087772322140e-01  -1.2288266186992898e-01  -1.2493050059801741e-01  -1.2697512678762754e-01  -1.2901746020857618e-01  -1.3105859232227782e-01  -1.3309944930117440e-01  -1.3514127832319875e-01  -1.3718530190661415e-01  -1.3923282151662317e-01  -1.4128491325035061e-01  -1.4334272329620823e-01  -1.4540415426134584e-01  -1.4745003607829732e-01  -1.4980680829633047e-01  -1.5042161330414752e-01  -1.5333967591425560e-01  -1.4813194892801113e-01  -1.5352507813370689e-01  -1.5216721238504774e-01  -2.0487955480427575e-01  -1.8306079388938601e-01  -1.7642484516542314e-01  -1.7161241100252853e-01  -1.6837088900461461e-01  -1.6594124866962004e-01  -1.6412367671317984e-01  -1.6279458474027464e-01  -1.6199890089745267e-01  -1.6180749262703861e-01  -1.6221654863094631e-01  -1.6300949372991388e-01  -1.6338684563582997e-01  -1.6318495745004627e-01  -1.6251921574573025e-01  -1.6148052005449079e-01  -1.6011280531205424e-01  -1.5840129482608958e-01  -1.5633333337815072e-01  -1.5393784678903225e-01  -1.5123200983024124e-01  -1.4821964565468349e-01  -1.4491420132420554e-01  -1.4132642248920010e-01  -1.3746802566552965e-01  -1.3335895790669336e-01  -1.2901168252565967e-01  -1.2443815108273137e-01  -1.1965621101817303e-01  -1.1468424491037349e-01  -1.0953220984443669e-01  -1.0422984539868334e-01  -9.8794679128933041e-02  -9.3242226570353318e-02  -8.7602866878867161e-02  -8.1894738351520932e-02  -7.6146799543522783e-02  -7.0381232074493358e-02  -6.4620510002084172e-02  -5.8896198675071981e-02  -5.3229101340528315e-02  -4.7645265155750703e-02  -3.6713411514293005e-02  -3.1374958188382651e-02  -2.6159568696398253e-02  -2.1101952534681594e-02  -1.6229693104282947e-02  -1.1544709176642602e-02  -7.0753427369869334e-03  -2.8271568882162466e-03  1.1507065260387833e-03  4.8817667928758553e-03  8.3646278933907133e-03  1.1577707241392175e-02  1.4522869689490108e-02  1.7206549908038524e-02  1.9632308418678933e-02  2.1804973632539193e-02  2.3739686907802666e-02  2.5436708873498731e-02  2.6910592871890959e-02  2.8191759186863532e-02  2.9268737481185733e-02  3.0171956408316047e-02  3.0915138804457551e-02  3.1506561536388075e-02  3.1967875253048082e-02  3.2303797689722004e-02  3.2545766117798081e-02  3.2684458097786501e-02  3.2741207703024716e-02  3.2721073854054636e-02  3.2632076823448035e-02  3.2483888486566893e-02  3.2285948493850379e-02  3.2042486297189074e-02  3.1754327978710965e-02  3.1428791158381444e-02  3.1066616763799931e-02  3.0670571866564265e-02  3.0241758621881616e-02  2.9780588128753869e-02  2.9287420784718566e-02  2.8762154314208019e-02  2.8203506194481670e-02  2.7611743124616756e-02  2.6984310884574318e-02  2.6319840780454174e-02  2.5619407046335925e-02  2.4878128988522482e-02  2.4094014246416304e-02  2.3271393730307732e-02  2.2400706606892015e-02  2.1488985063455653e-02  2.0525737198769378e-02  1.9519770455920810e-02  1.8463291658483729e-02  1.7352506396891731e-02  1.6197880340408980e-02  1.4985234495895824e-02  1.3725911457234645e-02  1.2413815851926529e-02  1.1047924542294413e-02  9.6282348261419338e-03  8.1568833079677626e-03  6.6370463014382214e-03  5.0592817846756896e-03  3.4413194988753915e-03  1.7668534498557057e-03  0.0000000000000000e+00  0.0000000000000000e+00  0.0000000000000000e+00  0.0000000000000000e+00  0.0000000000000000e+00  0.0000000000000000e+00  0.0000000000000000e+00  0.0000000000000000e+00  0.0000000000000000e+00  1.9202065840045008e-03  3.7119002706460661e-03  5.4757917671803278e-03  7.1862536162824540e-03  8.8470695954522977e-03  1.0456942756814745e-02  1.2014922108766190e-02  1.3519253110250791e-02  1.4967027018416890e-02  1.6355991363497965e-02  1.7682082140213492e-02  1.8942766261381232e-02  2.0132913832862961e-02  2.1249467511870384e-02  2.2287527409197004e-02  2.3240446993638871e-02  2.4107795975707579e-02  2.4878357393522926e-02  2.5547421600568197e-02  2.6108793404167861e-02  2.6555564505632998e-02  2.6881071663871537e-02  2.7079605328950731e-02  2.7140408323938294e-02  2.7061876692889519e-02  2.6832286940937981e-02  2.6449518391459894e-02  2.5902253681336612e-02  2.5185441670161068e-02  2.4296526775817458e-02  2.3224867604417068e-02  2.1965114053335316e-02  2.0532288109334034e-02  1.8912254159844061e-02  1.7079017248744943e-02  1.5073043414480271e-02  1.2871138901542480e-02  1.0474223732643718e-02  7.8839098995243106e-03  5.1078273008868984e-03  2.1372565176696326e-03  -1.0139185382397739e-03  -4.3541719208915310e-03  -7.8727676543142722e-03  -1.1580936362078891e-02  -1.5462621538237759e-02  -1.9519079193593167e-02  -2.3740931388555542e-02  -2.8131463283716598e-02  -3.2676348718021393e-02  -3.7372461863117476e-02  -4.2207961154129843e-02  -4.7168830381528637e-02  -5.2245974716786790e-02  -5.7423266312286593e-02  -6.2676111097530171e-02  -6.7943398941537766e-02  -7.3273178856851945e-02  -7.8577971166975166e-02  -8.3796168250767036e-02  -8.8932008460177389e-02  -9.3912249176098667e-02  -9.8716247544398242e-02  -1.0323657763458303e-01  -1.0746549129630262e-01  -1.1129162846968824e-01  -1.1470259318243928e-01  -1.1758571718401774e-01  -1.1994550109518248e-01  -1.2164898839571321e-01  -1.2271260894927633e-01  -1.2306715068669319e-01  -1.2258933799613152e-01  -1.2145403557263586e-01  -1.1953739306313729e-01  -1.1685467300006032e-01  -1.1352978583258173e-01  -1.0959324237361055e-01  -1.0517114365950932e-01  -1.0033365285930644e-01  -9.5083927765679879e-02  -8.9552394929015608e-02  -8.3777226741473726e-02  -7.7845562854822581e-02  -7.1762089412958072e-02  -6.5553241525223502e-02  -5.9268023264973081e-02  -5.2918739551658420e-02  -4.6515803877591411e-02  -4.0081237512296593e-02  -3.3619829553177008e-02  -2.7148645792438978e-02  -2.0670421667531746e-02  -1.4187566955317409e-02  -7.7107183773832506e-03  -1.2410302699704312e-03  5.2203644900908099e-03  1.1670237246790048e-02  1.8105714504231558e-02  2.4525721212345451e-02  3.0929779859804919e-02  3.7316472555449551e-02  4.3685628335982434e-02  5.0035758646324736e-02  5.6367196715528985e-02  6.2679275071826079e-02  6.8971747105452300e-02  7.5244528845353473e-02  8.1497339542149133e-02  8.7730137800114155e-02  9.3942896590520505e-02  1.0013553116294045e-01  1.0630802251614524e-01  1.1246037598400438e-01  1.1859260711771770e-01  1.2470470122789308e-01  1.3079672844809098e-01  1.3686871348722518e-01  1.4292068815876899e-01  1.4895270723331802e-01  1.5496480851955505e-01  1.6095701856691530e-01  1.6095674053870448e-01  1.6095606153822770e-01  1.6095499567855567e-01  1.6095370101125217e-01  1.6095240500810315e-01  1.6095133692082578e-01  1.6095065339595069e-01  1.6095037636647480e-01  -1.5477261587808913e-01  -1.8770936806368718e-01  -1.5346135039842718e-01  -1.4027590447896673e-01  -1.3012889412880033e-01  -1.1987215109666619e-01  -1.0959185699126253e-01  -9.8948252350806551e-02  -8.7830579937097683e-02  -7.8843358751833292e-02  -6.8911281689280290e-02  -5.9111820660547904e-02  -4.8645459521435425e-02  -3.7595949001622150e-02  -2.5925100089433255e-02  -1.4297638791250250e-01  -1.2659784364718604e-01  -1.0701600165250875e-01  -8.4682982715791097e-02  -6.2024755247702935e-02  -3.9463100882349153e-02  -1.6545246595234112e-01  -1.2161680141262726e-01  -1.9053974330401929e-02  -1.7872410659917903e-03  1.2634669634328357e-02  -1.6785831507331866e-01  2.2710490171249965e-02  -1.3604933631229674e-02  2.8340500670665018e-02  -2.8364186560366367e-04  3.1510509706602373e-02  -1.1243163641277112e-01  -9.5675259118035746e-02  3.2593017838942126e-02  -7.5483843525497460e-02  1.3521376121640791e-02  -4.9297399227298269e-02  3.2295991811665946e-02  2.8377820456227859e-02  -1.6031248644197518e-01  3.1176103719454645e-02  -2.5699451191556616e-02  -1.2155552240462160e-01  4.3778005396933037e-02  2.9483352339463479e-02  -2.6241049118083922e-03  6.1273993212990749e-02  6.3607144009326664e-03  2.7233465741717200e-02  1.4074434384388417e-02  7.8564073218810412e-02  -1.1491004466371382e-01  2.4499872217364299e-02  1.9711776243035242e-02  -1.0265050893548258e-01  2.3769012428345029e-02  2.0987844867668547e-02  -8.6663972308592574e-02  9.8763611649957381e-02  1.1278047229378035e-01  -1.3408756507506458e-02  1.7877486875208449e-02  1.4182703064083752e-02  2.6104877472287583e-02  -6.8866824467085863e-02  2.7005957723257288e-02  -1.4640688951179059e-01  -4.3742475652974767e-02  2.6232195879601600e-02  1.3023209856161663e-01  -2.3948412304539486e-02  1.0309762516354692e-02  2.3606482195069393e-02  -4.3553031260203040e-03  2.1482794697782671e-02  2.0622805377435337e-02  5.3202066610348285e-02  1.6960383541188440e-02  7.2164414219182571e-02  9.0942503716182843e-02  1.2723033364676407e-02  1.2254298799550782e-01  1.6079082526451317e-03  1.5537369700963988e-01  -1.6299815971720771e-01  8.1125308761618303e-03  5.7261654780285803e-03  1.4034569485848711e-01  -1.7445138791787312e-01  -1.6235828732293903e-01  -1.1816510293272257e-01  -5.6001713226252900e-02  7.9511374562839139e-03  3.3790802951089764e-02  1.4068629789551071e-01  -3.9902910206448414e-02  -6.4583901833629165e-02  -8.5730271323387397e-02  -1.0468744788448975e-01  8.8826199768530387e-02  2.6847508396555628e-02  6.9653792361407466e-02  1.0318432654883686e-01  2.5125332776764913e-02  2.2829348222492257e-02  5.1953182526217778e-02  2.5862336229412249e-02  2.8440137624044955e-02  3.6417698813142801e-02  3.0396648019609580e-02  3.1821122798324747e-02  3.2576417469542013e-02  3.2289359238221078e-02  -2.9131971392622528e-02  2.0831342893074090e-02  3.0239734647700117e-02  2.5866459295299977e-02  6.4512275491394105e-03  1.8294362692720660e-02  6.2432724105953427e-03  -9.5483187683840821e-03  1.3406919617429285e-03  -7.4616580212200113e-03  -1.9386079672349951e-02  1.5571369975842092e-01  -3.1528819019192855e-02  -4.3191427372618385e-02  -5.3940822035050968e-02  -6.4251197870597715e-02  -7.3958911503466618e-02  -8.3150976257885159e-02  -1.4934209842259230e-01  -9.4466048731941310e-02  -1.0525242715364369e-01  -1.1574073510824148e-01  -1.3534822284493225e-01  -1.2610270982928787e-01  -9.6349331717206471e-02  -1.1671071368625537e-01  -7.4336658857446586e-02  -5.0747013406828058e-02  -1.3626398534149486e-01  -1.5272765290796242e-01  1.6869471568395987e-03  1.5521672610547771e-01  4.5225586474252908e-03  -1.6278168441242882e-01  1.5596572688379987e-01  1.3667221382534958e-03  1.5186102549416497e-01  -1.6275212111345905e-01  -1.6241454579250783e-01  -1.6195850501655165e-01  -1.6245627393901557e-01  -1.6198246496604468e-01  -1.6280907930000238e-01  -1.6215439763044251e-01  -1.6326638702263430e-01  -1.6244103884942418e-01  -1.6359214126495106e-01  -1.6264804321629175e-01  -1.6352304363545223e-01  -1.6238434417083875e-01  -1.6289371704280367e-01  -1.6161905675780708e-01  -1.6180340627142323e-01  -1.6035567027408990e-01  -1.6030429759316578e-01  -1.5868885565269941e-01  -1.5820889701727109e-01  -1.5630344467628590e-01  -1.5986203857426820e-01  -1.5688261730633207e-01  -1.5411169286066301e-01  -1.5704061711194539e-01  -1.5893758247808154e-01  -1.5445241636534851e-01  -1.5154806426213130e-01  -1.5181026847908025e-01  -1.4854317084925736e-01  -1.4868814790484278e-01  -1.4509973046356989e-01  -1.4516563034788715e-01  -1.4150987792266106e-01  -1.4124049580501982e-01  -1.3684928212361627e-01  -1.3669314829119081e-01  -1.3248631408650094e-01  -1.3190386953606462e-01  -1.2753554421130039e-01  -1.2671619625519154e-01  -1.2225709309630760e-01  -1.2121488163789569e-01  -1.1671235161313892e-01  -1.1540746360852733e-01  -1.1093109729300836e-01  -1.0932743005661581e-01  -1.0492613948366188e-01  -1.0303812168277655e-01  -9.8778734387923867e-02  -9.6549919174158699e-02  -9.2525027188962092e-02  -8.9847403214945720e-02  -1.5498601274269955e-01  -1.5663637893402063e-01  -8.6178308124732664e-02  -8.3075674126993238e-02  -7.9829660261623955e-02  -7.6730645748864887e-02  -7.3561960886911193e-02  -7.0115715481028046e-02  -6.7389221433820215e-02  -6.3617289974827643e-02  -1.5035566782131807e-01  -6.1425440702660074e-02  -5.7228213306771233e-02  -5.5356324710994644e-02  -5.0963546891143380e-02  -4.9720896143583389e-02  -4.4978916951049087e-02  -1.5187382886744247e-01  -1.5357324055270888e-01  -1.6402193643800597e-01  -4.4211405459245644e-02  -3.9185062577652689e-02  -3.8977378516138264e-02  -3.3670749880412951e-02  -3.3998720492980535e-02  -2.8469580542110094e-02  -1.6008128314134096e-01  -2.9295158129827466e-02  -2.3549192750538243e-02  -1.4071577756666281e-01  -2.4852713371818332e-02  -1.8958444017682308e-02  -2.0704530068556024e-02  -1.4690602770598308e-02  -1.6769180269891343e-02  -1.0736578952461575e-02  -1.6098737602139507e-01  -1.2735392084368483e-01  -1.3169546766842033e-02  -7.0985986739609480e-03  -1.4775688822890382e-01  -1.4868299845625324e-01  -1.4639907944540020e-01  -1.1153492057990262e-01  -9.7638233912270226e-03  -3.6151359148673384e-03  -6.7039133097476517e-03  -4.8866427338176957e-04  -3.7982372704901970e-03  2.2179011086256475e-03  -4.0058474620048419e-02  -8.4676764391685018e-04  -2.2977219179134496e-02  -5.9522963220669599e-02  -1.1077880883211670e-03  4.6976436508723981e-03  8.0148118068543682e-03  1.0342911967680477e-02  7.0161115373773321e-03  1.2442010106879679e-02  9.2013656338257952e-03  1.4400280971064838e-02  1.1173065388978966e-02  1.6104922252656178e-02  1.2978154461033082e-02  1.7674631526600607e-02  1.4676543964219458e-02  1.9053551015193453e-02  1.6148465701823822e-02  2.0312642474682095e-02  1.7619941232052690e-02  2.1564580764935021e-02  1.8933858179106186e-02  2.2591719302960358e-02  2.0172104748243453e-02  2.3484753623246368e-02  2.1162588871612365e-02  2.4297828329024086e-02  -7.9672208528364291e-02  -9.4506148756674846e-02  2.2176898661050989e-02  2.4984877042705887e-02  2.3139892642127523e-02  2.5638834830082415e-02  -1.4796282254088547e-01  -1.1328665536207733e-01  2.3998587742291418e-02  2.6180137830313008e-02  -1.3038748284408064e-01  -7.7128051391137639e-02  -1.4272730958736507e-01  -1.4317993319678246e-01  -1.4982247625732240e-01  -1.4318131111678747e-01  -1.4859051432969572e-01  -1.4241295772428228e-01  -1.4795546894220843e-01  -1.4106580887661871e-01  -1.4476886992812368e-01  -1.3875104136269514e-01  -1.4249449962809199e-01  -1.3610304266747836e-01  -1.3831894840361145e-01  -1.3288665696165761e-01  -1.3445087396692101e-01  -1.2955984051973077e-01  -1.3055550526451795e-01  -1.2603425569118676e-01  -1.2666351715116705e-01  -1.2247450735691862e-01  -1.2277580001406137e-01  -1.1884973213932815e-01  -1.1892658165209219e-01  -1.1521869091961097e-01  -1.1510175926004559e-01  -1.1162346499668953e-01  -1.1098217399776017e-01  -1.0776447080929535e-01  -1.0806295910898038e-01  -1.0444730903456725e-01  -1.0408927616338438e-01  -1.0083739767522130e-01  -1.0050204905273609e-01  -9.7273290357659969e-02  -9.6697049999973486e-02  -9.3654505658474330e-02  -1.2782478747020162e-01  -1.0429813566842672e-01  -1.1811638615879955e-01  -9.3023874838029888e-02  -8.9958307172047489e-02  -9.0363951594991387e-02  -8.6829606418441202e-02  -8.6222067653284620e-02  -8.3213474312710964e-02  -8.2441988152739246e-02  -7.9546255553406636e-02  -7.8677957136183863e-02  -7.5826078670985356e-02  -8.3088357353955589e-02  -1.5351573581735564e-01  -1.4352177338406069e-01  -7.4975065579768782e-02  -7.2047880899660077e-02  -7.2862930498566930e-02  -6.9085301221055107e-02  -6.8245654947067858e-02  -6.5325232297043553e-02  -6.4387808250456563e-02  -6.1542234507753341e-02  -1.3499752967350809e-01  -6.5904495706086932e-02  -6.0553553087390577e-02  -5.7773661036811065e-02  -1.2660485556572929e-01  -5.6833309676145298e-02  -5.3951023367747826e-02  -5.5167586818695123e-02  -5.1020761351324023e-02  -5.0019157831844845e-02  -4.6973260540117009e-02  -4.7936922934889756e-02  -4.3887592770708327e-02  -4.2943993848521149e-02  -3.9848182670812478e-02  -3.8899993946445263e-02  -3.5716514027211640e-02  -3.6691405855841200e-02  -3.2560448003434606e-02  -3.1559743824905208e-02  -2.8426356101213003e-02  -2.7467888820149507e-02  -2.4311328493859471e-02  -1.3749593162009249e-01  -1.0367827536131984e-01  -1.1845436329509640e-01  -2.3449503773320397e-02  -2.0229221247714264e-02  -2.1104259034214735e-02  -1.6867216031578661e-02  -1.5999880438599647e-02  -1.2636843461670206e-02  -1.7741289507520699e-02  2.4681508239305375e-02  2.6632368199129765e-02  2.5305246892902762e-02  2.7017001047789056e-02  2.5863727764943837e-02  2.7329387210348163e-02  -8.5486674965252585e-02  -4.9180371154649204e-02  -1.6383255488178233e-01  -1.1739830840007874e-02  -8.4427569310445410e-03  -9.5961763410889175e-02  2.2124930433450637e-02  2.6406612194147392e-02  1.3121890682464155e-02  2.6330683189386792e-02  2.7560523799462115e-02  2.8647468830099193e-02  2.8655359408139000e-02  2.7716667067017822e-02  2.8610718565833051e-02  2.7805495018762835e-02  2.8506935084601646e-02  2.7811332600334214e-02  2.8335498854580823e-02  2.7744700098634004e-02  2.8105999330372014e-02  2.7593772090718532e-02  2.7804555718416089e-02  2.7366146560358198e-02  2.7443517591446427e-02  2.7065622246375261e-02  2.7020777457629989e-02  2.6695400537627981e-02  2.6538832668392732e-02  2.6245069138825735e-02  2.5982219979945709e-02  2.5712491506521180e-02  2.5374146251572211e-02  2.5102355163586224e-02  2.4678767858265997e-02  2.4431973229075556e-02  2.3943143753488688e-02  2.3667241283741217e-02  2.3121518368918591e-02  2.2846005069075442e-02  2.2252111695070940e-02  2.8254668113227341e-02  -3.3602696767584331e-02  -6.7344848186254941e-02  -7.4251594505118264e-03  -4.1398787700784737e-03  -5.1489164303349134e-03  -6.9373975459262121e-04  -1.7473161238964734e-03  2.8120963368991462e-03  3.7442275662485820e-03  7.2704183398564605e-03  8.3212153634732462e-03  1.1820473723795334e-02  1.0867133337122343e-02  1.5405755319558886e-02  1.6216118609144188e-02  1.9908723288813195e-02  2.0704271833932593e