<?xml version="1.0"?>
<VTKFile type="UnstructuredGrid"  version="0.1"  >
<UnstructuredGrid>
<Piece  NumberOfPoints="2886" NumberOfCells="5412">
<Points>
<DataArray  type="Float64"  NumberOfComponents="3"  format="ascii">0 0.1 0  0.98 0.1 0  1 0.1 0  1 0 0  1.5 0 0  3 0 0  3 0.3 0  0 0.3 0  0.01975375321854102 0.1 0  0.03918897458218897 0.1 0  0.05831079002627837 0.1 0  0.07712425666319796 0.1 0  0.0956343475259058 0.1 0  0.1138459546796227 0.1 0  0.1317638870668193 0.1 0  0.1493928840275937 0.1 0  0.1667376092280033 0.1 0  0.1838026357802664 0.1 0  0.2005924801287244 0.1 0  0.2171115811543574 0.1 0  0.2333643037107681 0.1 0  0.2493549444060462 0.1 0  0.2650877293306821 0.1 0  0.2805668058011438 0.1 0  0.2957962848620976 0.1 0  0.3107801766802674 0.1 0  0.3255224447361181 0.1 0  0.3400269848175519 0.1 0  0.3542976327080778 0.1 0  0.3683381609158136 0.1 0  0.3821522744564845 0.1 0  0.3957436316838916 0.1 0  0.4091158196437086 0.1 0  0.4222723742184605 0.1 0  0.4352167733293057 0.1 0  0.4479524348643424 0.1 0  0.4604827295467524 0.1 0  0.4728109659990664 0.1 0  0.4849404035409129 0.1 0  0.4968742471455402 0.1 0  0.508615651843175 0.1 0  0.520167721130924 0.1 0  0.5315335063628542 0.1 0  0.5427160117228604 0.1 0  0.5537181940261912 0.1 0  0.564542961924507 0.1 0  0.575193173270606 0.1 0  0.5856716438765114 0.1 0  0.5959811458006617 0.1 0  0.6061243988680743 0.1 0  0.6161040893285659 0.1 0  0.6259228503970299 0.1 0  0.6355832809287655 0.1 0  0.6450879281079505 0.1 0  0.6544393102991295 0.1 0  0.663639896558931 0.1 0  0.6726921201956305 0.1 0  0.6815983691630338 0.1 0  0.6903610031396646 0.1 0  0.6989823343332418 0.1 0  0.7074646404270378 0.1 0  0.7158101645005117 0.1 0  0.7240211149852543 0.1 0  0.7320996585612525 0.1 0  0.7400479319727645 0.1 0  0.7478680336617921 0.1 0  0.755562036504958 0.1 0  0.7631319665092091 0.1 0  0.7705798279317605 0.1 0  0.777907588066146 0.1 0  0.7851171851013118 0.1 0  0.7922105226004981 0.1 0  0.7991894774550319 0.1 0  0.8060558928136696 0.1 0  0.812811583201334 0.1 0  0.8194583352091183 0.1 0  0.8259979035038147 0.1 0  0.8324320194413813 0.1 0  0.8387623808293405 0.1 0  0.8449906627004957 0.1 0  0.8511185094880469 0.1 0  0.8571475426008311 0.1 0  0.8630793533568246 0.1 0  0.8689155114558531 0.1 0  0.8746575581239063 0.1 0  0.8803070109173519 0.1 0  0.885865363938836 0.1 0  0.8913340851680313 0.1 0  0.8967146206523592 0.1 0  0.9020083930695622 0.1 0  0.9072167995950768 0.1 0  0.9123412183131177 0.1 0  0.9173830029719022 0.1 0  0.9223434865647732 0.1 0  0.9272239785872722 0.1 0  0.9320257720706087 0.1 0  0.9367501330378739 0.1 0  0.9413983102716995 0.1 0  0.9459715351562933 0.1 0  0.9504710127113115 0.1 0  0.9548979346500661 0.1 0  0.9592534708344373 0.1 0  0.9635387708980176 0.1 0  0.9677549682252325 0.1 0  0.971903177251235 0.1 0  0.9759844952956497 0.1 0  0.9840000000000086 0.1 0  0.987999999999974 0.1 0  0.9919999999999393 0.1 0  0.9959999999999913 0.1 0  1 0.09591793123533533 0  1 0.09133596463859224 0  1 0.08619288104391448 0  1 0.08041996484521211 0  1 0.07394008421771697 0  1 0.06666666567302955 0  1 0.05850252932209174 0  1 0.04933859630113544 0  1 0.03905242821848202 0  1 0.02750659386753798 0  1 0.01454683679239736 0  1.015625 0 0  1.03125 0 0  1.046875 0 0  1.0625 0 0  1.078125 0 0  1.09375 0 0  1.109375 0 0  1.125 0 0  1.140625 0 0  1.15625 0 0  1.171875 0 0  1.1875 0 0  1.203125 0 0  1.21875 0 0  1.234375 0 0  1.25 0 0  1.265625 0 0  1.28125 0 0  1.296875 0 0  1.3125 0 0  1.328125 0 0  1.34375 0 0  1.359375 0 0  1.375 0 0  1.390625 0 0  1.40625 0 0  1.421875 0 0  1.4375 0 0  1.453125 0 0  1.46875 0 0  1.484375 0 0  1.515920751924515 0 0  1.531989369316721 0 0  1.54820720925872 0 0  1.564575665560501 0 0  1.581096138674279 0 0  1.597770029901263 0 0  1.614598783332311 0 0  1.631583831055205 0 0  1.64872661129721 0 0  1.666028606716533 0 0  1.683491276608443 0 0  1.701116134125304 0 0  1.718904673324128 0 0  1.736858414799339 0 0  1.754978895814663 0 0  1.773267661782904 0 0  1.791726281103402 0 0  1.810356325314689 0 0  1.8291593848892 0 0  1.848137076690385 0 0  1.867291007717254 0 0  1.886622833871288 0 0  1.90613418642363 0 0  1.925826753299799 0 0  1.945702199101513 0 0  1.96576223584749 0 0  1.986008569283268 0 0  2.006442931928877 0 0  2.02706707547783 0 0  2.047882750887917 0 0  2.06889175187935 0 0  2.090095860038271 0 0  2.111496891648636 0 0  2.133096679109554 0 0  2.154897066851056 0 0  2.176899916687499 0 0  2.199107102752146 0 0  2.22152053937028 0 0  2.244142122958061 0 0  2.266973806444078 0 0  2.290017523268154 0 0  2.313275249499252 0 0  2.336748971745516 0 0  2.360440702338606 0 0  2.384352453384031 0 0  2.408486280477412 0 0  2.432844240041185 0 0  2.457428414757088 0 0  2.482240901796653 0 0  2.507283830121838 0 0  2.532559332080812 0 0  2.558069568787417 0 0  2.583816724966441 0 0  2.60980299606584 0 0  2.636030600971886 0 0  2.662501790984011 0 0  2.689218818279327 0 0  2.716183964547616 0 0  2.743399548861297 0 0  2.77086788244719 0 0  2.798591312896326 0 0  2.826572223178268 0 0  2.854812990138617 0 0  2.883316031690714 0 0  2.912083780657189 0 0  2.941118704633482 0 0  2.970423276998917 0 0  3 0.02999999999994495 0  3 0.05999999999987042 0  3 0.089999999999783 0  3 0.119999999999701 0  3 0.149999999999619 0  3 0.179999999999692 0  3 0.2099999999997737 0  3 0.2399999999998511 0  3 0.2699999999999185 0  2.970138294777171 0.3 0  2.940375666438236 0.3 0  2.910711782853056 0.3 0  2.881146331305122 0.3 0  2.851678975030285 0.3 0  2.822309388626621 0.3 0  2.793037250095074 0.3 0  2.76386223529133 0.3 0  2.734784017903872 0.3 0  2.705802289276642 0.3 0  2.676916713794697 0.3 0  2.648126987654635 0.3 0  2.619432780406184 0.3 0  2.590833779385199 0.3 0  2.562329669847737 0.3 0  2.533920134950189 0.3 0  2.505604855727852 0.3 0  2.477383539822502 0.3 0  2.449255847639465 0.3 0  2.421221492569094 0.3 0  2.393280152486815 0.3 0  2.36543151914496 0.3 0  2.337675285481809 0.3 0  2.310011142385583 0.3 0  2.282438797441587 0.3 0  2.254957931061538 0.3 0  2.227568248063605 0.3 0  2.200269436651085 0.3 0  2.173061204949961 0.3 0  2.145943251515011 0.3 0  2.118915272469994 0.3 0  2.091976978084957 0.3 0  2.065128060700849 0.3 0  2.038368218849433 0.3 0  2.01169717777258 0.3 0  1.985114624111908 0.3 0  1.958620267850966 0.3 0  1.93221382054972 0.3 0  1.905894991850698 0.3 0  1.879663489459713 0.3 0  1.853519019126419 0.3 0  1.827461291053897 0.3 0  1.801490031354372 0.3 0  1.775604937580312 0.3 0  1.74980572560258 0.3 0  1.724092118631866 0.3 0  1.698463829173586 0.3 0  1.672920575782554 0.3 0  1.647462076974085 0.3 0  1.622088043536933 0.3 0  1.5967981978949 0.3 0  1.571592267767068 0.3 0  1.546469970305736 0.3 0  1.521431023814044 0.3 0  1.496475156230927 0.3 0  1.471602093687753 0.3 0  1.446811560490646 0.3 0  1.422103279101731 0.3 0  1.397476971708191 0.3 0  1.37293238939876 0.3 0  1.348469231419202 0.3 0  1.324087248732772 0.3 0  1.299786165921677 0.3 0  1.275565710847046 0.3 0  1.251425617644257 0.3 0  1.227365618676339 0.3 0  1.203385446174014 0.3 0  1.179484853067473 0.3 0  1.155663548773374 0.3 0  1.131921292279077 0.3 0  1.108257802159295 0.3 0  1.084672829009693 0.3 0  1.061166115303374 0.3 0  1.037737392995421 0.3 0  1.01438640299116 0.3 0  0.991112899770314 0.3 0  0.9679166155523955 0.3 0  0.944797284182564 0.3 0  0.921754678526042 0.3 0  0.8987885143602501 0.3 0  0.8758985548820624 0.3 0  0.8530845484099929 0.3 0  0.8303462351786988 0.3 0  0.8076833651172373 0.3 0  0.7850956864865304 0.3 0  0.7625829601354557 0.3 0  0.7401449314598274 0.3 0  0.717781337993959 0.3 0  0.6954919649675473 0.3 0  0.6732765357561226 0.3 0  0.6511348120768439 0.3 0  0.6290665642016573 0.3 0  0.6070715355430467 0.3 0  0.5851494825775325 0.3 0  0.5633001690203812 0.3 0  0.5415233562273221 0.3 0  0.5198187909431873 0.3 0  0.4981862401387795 0.3 0  0.4766254686134248 0.3 0  0.4551362360485234 0.3 0  0.4337182975262159 0.3 0  0.4123714223228037 0.3 0  0.3910953802377493 0.3 0  0.3698899313205595 0.3 0  0.3487548463710963 0.3 0  0.3276898864081783 0.3 0  0.3066948129116018 0.3 0  0.2857694003037476 0.3 0  0.2649134227095047 0.3 0  0.2441266417321288 0.3 0  0.2234088223399122 0.3 0  0.2027597568977288 0.3 0  0.1821792020676698 0.3 0  0.1616669305402443 0.3 0  0.1412227158799362 0.3 0  0.12084633013886 0.3 0  0.1005375673448281 0.3 0  0.08029618164595353 0.3 0  0.06012194778526769 0.3 0  0.04001466495039718 0.3 0  0.01997408913631205 0.3 0  0 0.2800000000000553 0  0 0.2600000000001105 0  0 0.2400000000001658 0  0 0.2200000000002211 0  0 0.2000000000002764 0  0 0.1800000000002244 0  0 0.1600000000001691 0  0 0.140000000000115 0  0 0.1200000000000564 0  1.13346801534201 0.01255848438672509 0  1.003577645172735 0.09351054173913405 0  0.9777559943702486 0.1034978156913738 0  0.9524533750752109 0.1040889939962738 0  0.9296242411226409 0.1041520033606139 0  0.9046110503652111 0.104409422380137 0  0.8777709649694228 0.1053360318797398 0  0.8483859145648608 0.1061007868330701 0  0.8162363822948977 0.1052777104363292 0  0.7893110024210437 0.1060761643971561 0  0.7587949382612539 0.1067265405088633 0  0.7280603867732535 0.1069398153264939 0  0.6947001989413015 0.1075609887579097 0  0.6590363283767549 0.1076715322596598 0  0.6210028614493155 0.1072970410408442 0  1.1953125 0.01353164693413185 0  1.258193991486058 0.01269648635163345 0  1.3201967268638 0.01407907077719561 0  1.383538555392096 0.01434101079053473 0  1.445312500000001 0.01303671693628424 0  1.508925448095738 0.01398525724792267 0  0.9939176689634008 0.1034638089837981 0  1.120967497222226 0.2796788492172345 0  1.572835902117391 0.01424132418857359 0  1.637573277451887 0.01212536916586023 0  1.709730776795181 0.01466855431023635 0  1.005631976950563 0.07074019818158772 0  1.784944696816299 0.01454708406461822 0  0.5805605730631225 0.1101465090472147 0  1.855621181165637 0.01550931272897607 0  0.5366111276616774 0.1096761308243709 0  1.935200147913231 0.01760344159641829 0  1.214922267975168 0.2799787705802257 0  1.31178773425331 0.2792
[...]
<PointData  Scalars="pressure"> 
<DataArray  type="Float64"  Name="pressure"  format="ascii">1.6130838959926336e-01  -1.6479946007217633e-01  -2.1886653435687295e-01  -1.6277363865409666e-01  -4.2511130212876329e-02  0.0000000000000000e+00  0.0000000000000000e+00  1.6131498970385197e-01  1.5538226708611763e-01  1.4955163968439186e-01  1.4381494305902554e-01  1.3817065314690130e-01  1.3261725832145638e-01  1.2715328039787627e-01  1.2177728404751682e-01  1.1648780300093001e-01  1.1128344139259549e-01  1.0616281216218530e-01  1.0112451464964829e-01  9.6167200899738667e-02  9.1289556957367957e-02  8.6490226651997251e-02  8.1767914766574343e-02  7.7121403935535071e-02  7.2549313130480464e-02  6.8050448625553761e-02  6.3623573385011303e-02  5.9267399419751753e-02  5.4980764109932849e-02  5.0762537468856159e-02  4.6611391937163835e-02  4.2526245647821995e-02  3.8505830745901984e-02  3.4549053048608072e-02  3.0654867795164836e-02  2.6822028361841579e-02  2.3049370688409315e-02  1.9335852476728324e-02  1.5680357522975370e-02  1.2081714376794520e-02  8.5389350848433868e-03  5.0508131211354544e-03  1.6163367503475459e-03  -1.7656447950248251e-03  -5.0961874005027129e-03  -8.3759923753863267e-03  -1.1606790183478646e-02  -1.4789218807076813e-02  -1.7924369532694561e-02  -2.1013480420946185e-02  -2.4057553487661823e-02  -2.7057068487322603e-02  -3.0013966464905555e-02  -3.2928760610198379e-02  -3.5802544526462365e-02  -3.8636422515264640e-02  -4.1431365307928868e-02  -4.4188396893964026e-02  -4.6908663563516258e-02  -4.9593081485361408e-02  -5.2242597629866439e-02  -5.4858145754736860e-02  -5.7441229982111201e-02  -5.9992259986903905e-02  -6.2512457441804128e-02  -6.5002478922319043e-02  -6.7464238612632760e-02  -6.9898174488179365e-02  -7.2304567242902060e-02  -7.4685064718583952e-02  -7.7041161471639738e-02  -7.9372630082870779e-02  -8.1681416755590042e-02  -8.3968226982327143e-02  -8.6233371838982872e-02  -8.8478346701579239e-02  -9.0704017284636188e-02  -9.2911270452630437e-02  -9.5101734968124685e-02  -9.7275535546994987e-02  -9.9433132284743320e-02  -1.0157516642558921e-01  -1.0370479535797822e-01  -1.0582122704880315e-01  -1.0792510007008191e-01  -1.1001813559947475e-01  -1.1210069821698952e-01  -1.1417365374714820e-01  -1.1623799216548891e-01  -1.1829538445213883e-01  -1.2034623079072598e-01  -1.2239067861091296e-01  -1.2443077623201929e-01  -1.2646722921341419e-01  -1.2850092322216408e-01  -1.3053290364833978e-01  -1.3256404988363296e-01  -1.3459554711638147e-01  -1.3662854300136368e-01  -1.3866424624916487e-01  -1.4070358758678184e-01  -1.4274766109449794e-01  -1.4479378219204814e-01  -1.4682148285268645e-01  -1.4917557542757037e-01  -1.4968653921171776e-01  -1.5249881265202930e-01  -1.4683854625187864e-01  -1.5229586223275515e-01  -1.5114841047681921e-01  -2.0515396379381148e-01  -1.8327599834948230e-01  -1.7663150861643140e-01  -1.7181582889789981e-01  -1.6857339982069219e-01  -1.6614362695529267e-01  -1.6432635614879879e-01  -1.6299789272277457e-01  -1.6220293564380167e-01  -1.6201219539416933e-01  -1.6242158139137475e-01  -1.6321440244338734e-01  -1.6359204334415534e-01  -1.6339071061880250e-01  -1.6272580792728697e-01  -1.6168829056664324e-01  -1.6032215777862621e-01  -1.5861271605734723e-01  -1.5654737251492901e-01  -1.5415506345679481e-01  -1.5145296893301691e-01  -1.4844492800164483e-01  -1.4514437646160924e-01  -1.4156203956271324e-01  -1.3770961062970508e-01  -1.3360698179215580e-01  -1.2926656156244215e-01  -1.2470024422292261e-01  -1.1992579999029405e-01  -1.1496152375588567e-01  -1.0981727260892588e-01  -1.0452270311855208e-01  -9.9095198729202347e-02  -9.3550188614158231e-02  -8.7917909626458318e-02  -8.2216422016760313e-02  -7.6474497623193249e-02  -7.0714253568529006e-02  -6.4958050442133444e-02  -5.9237343513447178e-02  -5.3572854378166883e-02  -4.7990555497907268e-02  -3.7058381864764921e-02  -3.1717934377038258e-02  -2.6499281523662498e-02  -2.1437116279219490e-02  -1.6559072436061379e-02  -1.1867029539203114e-02  -7.3895186253131375e-03  -3.1321384841444377e-03  8.5598689107445141e-04  4.5981663479845144e-03  8.0928214658842861e-03  1.1318278971182131e-02  1.4276275418318017e-02  1.6973069771402793e-02  1.9412075627687427e-02  2.1597995366398642e-02  2.3545821987665399e-02  2.5255686399830668e-02  2.6742076000629323e-02  2.8035282023227557e-02  2.9123761004436068e-02  3.0037884539371486e-02  3.0791328226158151e-02  3.1392351168983298e-02  3.1862570773321899e-02  3.2206701920683846e-02  3.2456246891856173e-02  3.2601827628755492e-02  3.2664843084831384e-02  3.2650369217448384e-02  3.2566456303623509e-02  3.2422829237724826e-02  3.2228985736604696e-02  3.1989198487614098e-02  3.1704312476087466e-02  3.1381713027549808e-02  3.1022169212539953e-02  3.0628495923933179e-02  3.0201829360314660e-02  2.9742613254100415e-02  2.9251240649640159e-02  2.8727639189916363e-02  2.8170546202716109e-02  2.7580261088665438e-02  2.6954240076579927e-02  2.6291129630351968e-02  2.5592035222015592e-02  2.4852071883307240e-02  2.4069251267255329e-02  2.3247932062005691e-02  2.2378537505456271e-02  2.1468124204891866e-02  2.0506179717146085e-02  1.9501537323951369e-02  1.8446387542321439e-02  1.7336938129898380e-02  1.6183660280921799e-02  1.4972357584758619e-02  1.3714389261992244e-02  1.2403646933123557e-02  1.1039107209117148e-02  9.6207567866746415e-03  8.1507293753096156e-03  6.6322088346845035e-03  5.0557422777174699e-03  3.4390438183370133e-03  1.7658140276562734e-03  0.0000000000000000e+00  0.0000000000000000e+00  0.0000000000000000e+00  0.0000000000000000e+00  0.0000000000000000e+00  0.0000000000000000e+00  0.0000000000000000e+00  0.0000000000000000e+00  0.0000000000000000e+00  1.9185267276453186e-03  3.7085463004448093e-03  5.4707124687393737e-03  7.1793902703871110e-03  8.8383637738823073e-03  1.0446324079786625e-02  1.2002311105536942e-02  1.3504564212318784e-02  1.4950167143772796e-02  1.6336857956218948e-02  1.7660565572199419e-02  1.8918747549478199e-02  2.0106266900556218e-02  2.1220058294423687e-02  2.2255218218384627e-02  2.3205084207215645e-02  2.4069230512134644e-02  2.4836426213730112e-02  2.5501959592830456e-02  2.6059633900142255e-02  2.6502535405682526e-02  2.6824010914941465e-02  2.7018344127394872e-02  2.7074766579579499e-02  2.6991739176419699e-02  2.6757479847681433e-02  2.6369913864101341e-02  2.5817725830661407e-02  2.5095871965188352e-02  2.4201813235947039e-02  2.3124900994994292e-02  2.1859798561504360e-02  2.0421561355286121e-02  1.8796066660126599e-02  1.6957285536567286e-02  1.4945669142482298e-02  1.2738144306074371e-02  1.0335511045799091e-02  7.7394477635184880e-03  4.9575544746373081e-03  1.9811244727171258e-03  -1.1759221191126315e-03  -4.5221194819874844e-03  -8.0467020776767203e-03  -1.1760943877031658e-02  -1.5648633442875700e-02  -1.9711119077401678e-02  -2.3938848090580736e-02  -2.8335206347658369e-02  -3.2885729544958310e-02  -3.7587206617777452e-02  -4.2427728205793235e-02  -4.7393109532973460e-02  -5.2474197914837629e-02  -5.7654799527349122e-02  -6.2910079976858310e-02  -6.8178385275561401e-02  -7.3508522767379555e-02  -7.8812204937017724e-02  -8.4027441455779589e-02  -8.9158703457632354e-02  -9.4132349663363910e-02  -9.8927639688213082e-02  -1.0343683308208317e-01  -1.0765199935242359e-01  -1.1146151238319857e-01  -1.1485292533030426e-01  -1.1771322300938321e-01  -1.2004700711581133e-01  -1.2172119439777107e-01  -1.2275245837376814e-01  -1.2307195421484864e-01  -1.2255720378253086e-01  -1.2138374910724527e-01  -1.1942934739330165e-01  -1.1671043047755456e-01  -1.1335191209092098e-01  -1.0938533206856182e-01  -1.0493681148125641e-01  -1.0007656702054558e-01  -9.4808208578607320e-02  -8.9261200747643835e-02  -8.3473489117729158e-02  -7.7531307039456682e-02  -7.1439348138072886e-02  -6.5223768763167309e-02  -5.8933013545731515e-02  -5.2579241790900795e-02  -4.6172750725846430e-02  -3.9735294320572434e-02  -3.3271603580316347e-02  -2.6798534860797783e-02  -2.0318788119967627e-02  -1.3834743469339716e-02  -7.3569044979449856e-03  -8.8640964292464950e-04  5.5756227421347683e-03  1.2026005528771973e-02  1.8461901908063027e-02  2.4882251775165214e-02  3.1286584258866622e-02  3.7673500387731505e-02  4.4042832079495768e-02  5.0393110807095187e-02  5.6724666264635813e-02  6.3036840509728714e-02  6.9329390911890179e-02  7.5602235484128921e-02  8.1855097904219756e-02  8.8087938260562368e-02  9.4300730749388523e-02  1.0049339251256827e-01  1.0666590573931493e-01  1.1281827656615895e-01  1.1895052122250428e-01  1.2506262609476554e-01  1.3115466120836777e-01  1.3722665190150285e-01  1.4327863045630410e-01  1.4931065171081082e-01  1.5532275393677294e-01  1.6131496420351796e-01  1.6131468986863035e-01  1.6131401989847402e-01  1.6131296822161617e-01  1.6131169078572002e-01  1.6131041203176935e-01  1.6130935815696504e-01  1.6130868372253709e-01  1.6130841037299506e-01  -1.5498846824348456e-01  -1.8795061330411428e-01  -1.5282194240157473e-01  -1.3969869577980734e-01  -1.2960611829586477e-01  -1.1938989025545349e-01  -1.0914035237977869e-01  -9.8521071213366396e-02  -8.7422571404506585e-02  -7.8447050016384495e-02  -6.8524909726160918e-02  -5.8732826331313416e-02  -4.8272294739635138e-02  -3.7227239644863248e-02  -2.5559709904835942e-02  -1.4320913763794454e-01  -1.2685605325586161e-01  -1.0730407382529551e-01  -8.5000532619503841e-02  -6.2362968608354274e-02  -3.9807257397935475e-02  -1.6471408895512926e-01  -1.2167605840187680e-01  -1.9385355062460786e-02  -2.0881243963316665e-03  1.2381552331157172e-02  -1.6806260065538542e-01  2.2511513738459270e-02  -1.3241932340116010e-02  2.8187954200591340e-02  7.7616609029282284e-05  3.1399752911069466e-02  -1.1259191906011577e-01  -9.5890565381093487e-02  3.2513938650118160e-02  -7.5717762947683037e-02  1.3881462505106908e-02  -4.9522454510524692e-02  3.2236121067403978e-02  2.8737111443201003e-02  -1.6052128549303921e-01  3.1129771368009086e-02  -2.5899075704173592e-02  -1.2150403496420979e-01  4.4136786159732204e-02  2.9445822592000324e-02  -2.7881052423886672e-03  6.1632432590987295e-02  6.2138792836184415e-03  2.7202457842376106e-02  1.3945332063443854e-02  7.8922320848200028e-02  -1.1475127154253877e-01  2.4474130586740136e-02  1.9598998250355965e-02  -1.0240629404318621e-01  2.3672505085744391e-02  2.0967437737113365e-02  -8.6367267903802614e-02  9.9121737819182584e-02  1.1313855207581396e-01  -1.3590761178946632e-02  1.7861105491705838e-02  1.4170547394909760e-02  2.6023290494334366e-02  -6.8541321375016895e-02  2.6943023513926977e-02  -1.4578766686790823e-01  -4.3398367982450316e-02  2.6181265298733422e-02  1.3059014694740176e-01  -2.3597640747792453e-02  1.0301503998610993e-02  2.3569527960619625e-02  -4.0011165683143555e-03  2.1839144034185604e-02  2.0594803846557215e-02  5.3559469479579319e-02  1.6940071624882140e-02  7.2522086661039625e-02  9.1300319241741604e-02  1.2709382533014334e-02  1.2290090821480272e-01  1.6064976256627273e-03  1.5573167881010913e-01  -1.6320223173927409e-01  8.1045989219041374e-03  5.7219543404477841e-03  1.4070363512731829e-01  -1.7466129248744627e-01  -1.6256451624812859e-01  -1.1828092125750532e-01  -5.5664639220462712e-02  8.3065839758251197e-03  3.4147690088597311e-02  1.4104433702557295e-01  -4.0119428836460309e-02  -6.4817378208350540e-02  -8.5958748190036058e-02  -1.0488091637213727e-01  8.9184375326850723e-02  2.6775299958186755e-02  7.0012125493594715e-02  1.0354219711070525e-01  2.5081716963038639e-02  2.2806279419690958e-02  5.2311779946248187e-02  2.5834184960686707e-02  2.8406017413210478e-02  3.6776693178686912e-02  3.0355136682155212e-02  3.1768782631895531e-02  3.2506919427856752e-02  3.2196297457822307e-02  -2.9472301586482206e-02  2.1190991159832168e-02  3.0109251852774927e-02  2.5691293189112119e-02  6.8118531828616057e-03  1.8068562492357911e-02  5.9658501063038268e-03  -9.8655279278820236e-03  1.3396745737558286e-03  -7.0995547628226350e-03  -1.9022073818484215e-02  1.5607171479730564e-01  -3.1161968216260976e-02  -4.2820647455536175e-02  -5.3564933282195026e-02  -6.3868576940467256e-02  -7.3567830121938294e-02  -8.2749400753342944e-02  -1.4956547004191795e-01  -9.4047311886062482e-02  -1.0481174602083708e-01  -1.1527183676051504e-01  -1.3559271023483216e-01  -1.2559727860671491e-01  -9.6652370177493535e-02  -1.1698430057598502e-01  -7.4665069798161371e-02  -5.1090377299576120e-02  -1.3571060052053815e-01  -1.5173526530803222e-01  1.6854330912469658e-03  1.5557467972552533e-01  4.5183805698408340e-03  -1.6298682342347620e-01  1.5632375960656994e-01  1.3658036562125436e-03  1.5221897033265555e-01  -1.6295767517820584e-01  -1.6262031644634586e-01  -1.6216494242847854e-01  -1.6266211380426776e-01  -1.6218893876079596e-01  -1.6301497215433811e-01  -1.6236098876519284e-01  -1.6347248216733637e-01  -1.6264783051968079e-01  -1.6379865727831741e-01  -1.6285525461154063e-01  -1.6373014480059658e-01  -1.6259226178117084e-01  -1.6310127105615246e-01  -1.6182767922709251e-01  -1.6201050798400884e-01  -1.6056429993599777e-01  -1.6050917213458746e-01  -1.5889576913161688e-01  -1.5840775190863166e-01  -1.5650659086046981e-01  -1.6005617448600765e-01  -1.5709313212115533e-01  -1.5431922382519603e-01  -1.5722298207246058e-01  -1.5911074318631593e-01  -1.5466592210867358e-01  -1.5176013114052109e-01  -1.5202786584045172e-01  -1.4876018302818295e-01  -1.4891038795531442e-01  -1.4532185134914113e-01  -1.4539315775037645e-01  -1.4173823752163239e-01  -1.4147404564991781e-01  -1.3708389995623152e-01  -1.3693341657067493e-01  -1.3272837772411736e-01  -1.3215134904834105e-01  -1.2778492799130414e-01  -1.2697136823454136e-01  -1.2251388936005178e-01  -1.2147796452807864e-01  -1.1697652527589472e-01  -1.1567850514807730e-01  -1.1120245692651762e-01  -1.0960632197005893e-01  -1.0520412178088426e-01  -1.0332443607906376e-01  -9.9062783062483922e-02  -9.6842615913541458e-02  -9.2814211079919717e-02  -9.0146980925270570e-02  -1.5514151901913614e-01  -1.5677317012077183e-01  -8.6471114633531965e-02  -8.3379432442539772e-02  -8.0125609705770526e-02  -7.7037821667023831e-02  -7.3858845512661073e-02  -7.0424911842067381e-02  -6.7685815879373459e-02  -6.3926874885774199e-02  -1.5055840167825152e-01  -6.1720582060147626e-02  -5.7536626566557947e-02  -5.5645465521860733e-02  -5.1268617880357734e-02  -5.0008041011082423e-02  -4.5279717806127016e-02  -1.5199206310705662e-01  -1.5365931619591142e-01  -1.6422875844711676e-01  -4.4492398869805071e-02  -3.9479799291254336e-02  -3.9251202500246468e-02  -3.3957866454786455e-02  -3.4264283343113537e-02  -2.8747905204977317e-02  -1.6023261735460409e-01  -2.9551593931873496e-02  -2.3817526946507690e-02  -1.4093451197302201e-01  -2.5099296696031247e-02  -1.9215957738770762e-02  -2.0940931863566943e-02  -1.4936720113923132e-02  -1.6995448404544023e-02  -1.0970894399669164e-02  -1.6119653228129729e-01  -1.2759487285165733e-01  -1.3385362637447808e-02  -7.3210167924535330e-03  -1.4782963402745922e-01  -1.4871678662493445e-01  -1.4650236948047665e-01  -1.1179737979922852e-01  -9.9693934885346728e-03  -3.8256810220575060e-03  -6.8993005122158337e-03  -6.8749635468337664e-04  -3.9840188892104854e-03  2.0302265946602403e-03  -4.0371726321141298e-02  -1.0758870256107104e-03  -2.3267359410355508e-02  -5.9843806016693368e-02  -1.2845627108283081e-03  4.5205021338831945e-03  7.8246429385840453e-03  1.0164580895792755e-02  6.8488058559743560e-03  1.2274781354873164e-02  9.0431778901579486e-03  1.4243643499202917e-02  1.1023428968150024e-02  1.5958329786325161e-02  1.2836457131502296e-02  1.7537077809488252e-02  1.4542131729480913e-02  1.8924350302660493e-02  1.6020671049171320e-02  2.0190968644135630e-02  1.7498362910457189e-02  2.1449992525621964e-02  1.8818033353937481e-02  2.2483437411253131e-02  2.0061555327098156e-02  2.3382299028599826e-02  2.1056725055554278e-02  2.4200617789814971e-02  -7.9984847761471647e-02  -9.4783747422771014e-02  2.2075584789129871e-02  2.4892498067472065e-02  2.3043013596323797e-02  2.5550876833756269e-02  -1.4818801499570955e-01  -1.1356329731879443e-01  2.3905954830114647e-02  2.6096386440037662e-02  -1.3063901323243451e-01  -7.7413526958171650e-02  -1.4275456732653577e-01  -1.4316170637386308e-01  -1.4980025290411650e-01  -1.4310634805418040e-01  -1.4849316468669271e-01  -1.4227564270911988e-01  -1.4777349320812028e-01  -1.4086222244247562e-01  -1.4451207179808243e-01  -1.3848761138485230e-01  -1.4217068846274342e-01  -1.3578886557155820e-01  -1.3794602570790687e-01  -1.3253422437076193e-01  -1.3404592675535820e-01  -1.2918020115347462e-01  -1.3013224736490464e-01  -1.2563754619717687e-01  -1.2623109504191213e-01  -1.2206813671960869e-01  -1.2234046573937783e-01  -1.1843869339839505e-01  -1.1849183422386626e-01  -1.1480603231108745e-01  -1.1466973751703308e-01  -1.1121112196340267e-01  -1.1055474898377017e-01  -1.0735523801221067e-01  -1.0767061256111823e-01  -1.0405440322225788e-01  -1.0368190063857338e-01  -1.0044461545602798e-01  -1.0009576114169043e-01  -9.6880917735124375e-02  -9.6293897709551782e-02  -9.3263524717250509e-02  -1.2750188790385975e-01  -1.0392477352561080e-01  -1.1773477414931446e-01  -9.2623685832722041e-02  -8.9568846777508440e-02  -8.9985402864191405e-02  -8.6451038147986187e-02  -8.5834184185619097e-02  -8.2834803183147551e-02  -8.2055814894530163e-02  -7.9168092062130990e-02  -7.8293571539883339e-02  -7.5449023241075400e-02  -8.2719380264119707e-02  -1.5338912743971467e-01  -1.4312209018542921e-01  -7.4592470255623308e-02  -7.1671732893845513e-02  -7.2493088619712917e-02  -6.8715649970465253e-02  -6.7870378893154268e-02  -6.4955559565602450e-02  -6.4013530170612426e-02  -6.1172868206489241e-02  -1.3453980223560588e-01  -6.5540681213917665e-02  -6.0180297342272392e-02  -5.7404613029907806e-02  -1.2614330660910192e-01  -5.6461049522817497e-02  -5.3582519656278894e-02  -5.4802714376215644e-02  -5.0655988771823750e-02  -4.9651161752338524e-02  -4.6608480335900183e-02  -4.7575808994104719e-02  -4.3525966957193796e-02  -4.2579269889348619e-02  -3.9486204246833516e-02  -3.8535415132260518e-02  -3.5354312466521126e-02  -3.6331988528392943e-02  -3.2200472253295753e-02  -3.1197437015506993e-02  -2.8065990500394343e-02  -2.7105605750283746e-02  -2.3950731413040275e-02  -1.3738635882722783e-01  -1.0325826197957400e-01  -1.1800386436175933e-01  -2.3087310647695966e-02  -1.9868484647692804e-02  -2.0745234745048909e-02  -1.6507851877857870e-02  -1.5639097710934521e-02  -1.2277220886280183e-02  -1.7383666014398315e-02  2.4592561364830904e-02  2.6552352196439262e-02  2.5219957291173777e-02  2.6940633210347183e-02  2.5782051717255339e-02  2.7256449162670043e-02  -8.5092047404878926e-02  -4.9446824534059616e-02  -1.6403818171569060e-01  -1.1379055893818889e-02  -8.0829888243235583e-03  -9.5551123450608927e-02  2.1991115956678447e-02  2.6311303850334530e-02  1.2929657214756442e-02  2.6252565802954434e-02  2.7490855178231535e-02  2.8582888022258345e-02  2.8593757509424438e-02  2.7650122723121080e-02  2.8551988587174140e-02  2.7742039706293877e-02  2.8450969358433883e-02  2.7750836772327984e-02  2.8282079112481470e-02  2.7687118821615619e-02  2.8055100096155215e-02  2.7539000434318645e-02  2.7756077588949265e-02  2.7314069964690560e-02  2.7397410791047287e-02  2.7016236824704668e-02  2.6976981491928384e-02  2.6648674492024585e-02  2.6497339538958827e-02  2.6201021341971987e-02  2.5942963645711331e-02  2.5671019766023599e-02  2.5337127404248320e-02  2.5063342022803588e-02  2.4643893463910466e-02  2.4395442864496030e-02  2.3910435988881224e-02  2.3633246089660220e-02  2.3090923590532504e-02  2.2814181844909465e-02  2.2223592911867207e-02  2.8179629944257933e-02  -3.3245514888528990e-02  -6.6965122886813264e-02  -7.0644454557107035e-03  -3.7800374076426770e-03  -4.7900965976287666e-03  -3.3472257412271023e-04  -1.3893471972447951e-03  3.1703738889076309e-03  4.1033837627505645e-03  7.6289217167487145e-03  8.6804498016994722e-03  1.2179140994724303e-02  1.1225076147721032e-02  1.5763922169587594e-02  1.6574889347192395e-02  2.0267056052981063e-02  2.1063093350908998e-