<?xml version="1.0"?>
<VTKFile type="UnstructuredGrid"  version="0.1"  >
<UnstructuredGrid>
<Piece  NumberOfPoints="2945" NumberOfCells="5525">
<Points>
<DataArray  type="Float64"  NumberOfComponents="3"  format="ascii">0 0.1 0  0.95 0.1 0  1 0.1 0  1 0 0  1.5 0 0  3 0 0  3 0.3 0  0 0.3 0  0.0197424558707114 0.1 0  0.03915669042224804 0.1 0  0.05824816022699029 0.1 0  0.07702223050332387 0.1 0  0.09548417327144595 0.1 0  0.1136391897583987 0.1 0  0.1314923700144587 0.1 0  0.1490487330862866 0.1 0  0.1663132263225292 0.1 0  0.1832906857273058 0.1 0  0.1999858946008978 0.1 0  0.216403545770297 0.1 0  0.2325482404045023 0.1 0  0.2484245348165176 0.1 0  0.2640368740372501 0.1 0  0.2793896589642241 0.1 0  0.2944872056237027 0.1 0  0.3093337469555254 0.1 0  0.3239334613687816 0.1 0  0.3382904528528069 0.1 0  0.3524087553122972 0.1 0  0.3662923366391824 0.1 0  0.3799451014768399 0.1 0  0.393370886920506 0.1 0  0.4065734648871676 0.1 0  0.419556546320114 0.1 0  0.4323237821343415 0.1 0  0.4448787573056132 0.1 0  0.4572250047274954 0.1 0  0.4693659926332938 0.1 0  0.4813051343276231 0.1 0  0.4930457849308193 0.1 0  0.5045912455271677 0.1 0  0.5159447600209797 0.1 0  0.5271095174127136 0.1 0  0.5380886618453393 0.1 0  0.5488852725463512 0.1 0  0.5595023868312478 0.1 0  0.5699429904313016 0.1 0  0.5802100167387366 0.1 0  0.5903063508274641 0.1 0  0.6002348329443006 0.1 0  0.6099982499579832 0.1 0  0.6195993483501782 0.1 0  0.6290408246013842 0.1 0  0.6383253354321616 0.1 0  0.6474554910757137 0.1 0  0.6564338522440513 0.1 0  0.6652629482939147 0.1 0  0.6739452579188948 0.1 0  0.6824832240165607 0.1 0  0.6908792415022103 0.1 0  0.6991356755989045 0.1 0  0.7072548438546967 0.1 0  0.7152390281534421 0.1 0  0.7230904746196039 0.1 0  0.7308113906759266 0.1 0  0.7384039435269326 0.1 0  0.7458702676581656 0.1 0  0.7532124631720397 0.1 0  0.7604325921167397 0.1 0  0.7675326856666862 0.1 0  0.7745147374421916 0.1 0  0.7813807123989068 0.1 0  0.7881325374362798 0.1 0  0.7947721131625659 0.1 0  0.8013013031866276 0.1 0  0.8077219449067021 0.1 0  0.8140358419942376 0.1 0  0.8202447685401882 0.1 0  0.8263504700910924 0.1 0  0.8323546643163114 0.1 0  0.8382590362474568 0.1 0  0.8440652473522128 0.1 0  0.8497749272799842 0.1 0  0.8553896837646281 0.1 0  0.8609110933285474 0.1 0  0.866340708855119 0.1 0  0.8716800550492284 0.1 0  0.8769306339052932 0.1 0  0.8820939206038667 0.1 0  0.8871713655604893 0.1 0  0.8921643975475726 0.1 0  0.8970744196575535 0.1 0  0.9019028106970642 0.1 0  0.9066509291259979 0.1 0  0.9113201098984042 0.1 0  0.9159116634553873 0.1 0  0.9204268818729691 0.1 0  0.9248670319440222 0.1 0  0.9292333656649013 0.1 0  0.9335271075812669 0.1 0  0.9377494640511216 0.1 0  0.941901623463222 0.1 0  0.9459847526686701 0.1 0  0.9538461538461205 0.1 0  0.9576923076922409 0.1 0  0.9615384615384381 0.1 0  0.9653846153846337 0.1 0  0.9692307692307542 0.1 0  0.9730769230768747 0.1 0  0.9769230769229952 0.1 0  0.9807692307691157 0.1 0  0.9846153846152361 0.1 0  0.9884615384614317 0.1 0  0.9923076923076356 0.1 0  0.9961538461538395 0.1 0  1 0.09591793123533533 0  1 0.09133596463859224 0  1 0.08619288104391448 0  1 0.08041996484521211 0  1 0.07394008421771697 0  1 0.06666666567302955 0  1 0.05850252932209174 0  1 0.04933859630113544 0  1 0.03905242821848202 0  1 0.02750659386753798 0  1 0.01454683679239736 0  1.015625 0 0  1.03125 0 0  1.046875 0 0  1.0625 0 0  1.078125 0 0  1.09375 0 0  1.109375 0 0  1.125 0 0  1.140625 0 0  1.15625 0 0  1.171875 0 0  1.1875 0 0  1.203125 0 0  1.21875 0 0  1.234375 0 0  1.25 0 0  1.265625 0 0  1.28125 0 0  1.296875 0 0  1.3125 0 0  1.328125 0 0  1.34375 0 0  1.359375 0 0  1.375 0 0  1.390625 0 0  1.40625 0 0  1.421875 0 0  1.4375 0 0  1.453125 0 0  1.46875 0 0  1.484375 0 0  1.515920751924515 0 0  1.531989369316721 0 0  1.54820720925872 0 0  1.564575665560501 0 0  1.581096138674279 0 0  1.597770029901263 0 0  1.614598783332311 0 0  1.631583831055205 0 0  1.64872661129721 0 0  1.666028606716533 0 0  1.683491276608443 0 0  1.701116134125304 0 0  1.718904673324128 0 0  1.736858414799339 0 0  1.754978895814663 0 0  1.773267661782904 0 0  1.791726281103402 0 0  1.810356325314689 0 0  1.8291593848892 0 0  1.848137076690385 0 0  1.867291007717254 0 0  1.886622833871288 0 0  1.90613418642363 0 0  1.925826753299799 0 0  1.945702199101513 0 0  1.96576223584749 0 0  1.986008569283268 0 0  2.006442931928877 0 0  2.02706707547783 0 0  2.047882750887917 0 0  2.06889175187935 0 0  2.090095860038271 0 0  2.111496891648636 0 0  2.133096679109554 0 0  2.154897066851056 0 0  2.176899916687499 0 0  2.199107102752146 0 0  2.22152053937028 0 0  2.244142122958061 0 0  2.266973806444078 0 0  2.290017523268154 0 0  2.313275249499252 0 0  2.336748971745516 0 0  2.360440702338606 0 0  2.384352453384031 0 0  2.408486280477412 0 0  2.432844240041185 0 0  2.457428414757088 0 0  2.482240901796653 0 0  2.507283830121838 0 0  2.532559332080812 0 0  2.558069568787417 0 0  2.583816724966441 0 0  2.60980299606584 0 0  2.636030600971886 0 0  2.662501790984011 0 0  2.689218818279327 0 0  2.716183964547616 0 0  2.743399548861297 0 0  2.77086788244719 0 0  2.798591312896326 0 0  2.826572223178268 0 0  2.854812990138617 0 0  2.883316031690714 0 0  2.912083780657189 0 0  2.941118704633482 0 0  2.970423276998917 0 0  3 0.02999999999994495 0  3 0.05999999999987042 0  3 0.089999999999783 0  3 0.119999999999701 0  3 0.149999999999619 0  3 0.179999999999692 0  3 0.2099999999997737 0  3 0.2399999999998511 0  3 0.2699999999999185 0  2.970138294777171 0.3 0  2.940375666438236 0.3 0  2.910711782853056 0.3 0  2.881146331305122 0.3 0  2.851678975030285 0.3 0  2.822309388626621 0.3 0  2.793037250095074 0.3 0  2.76386223529133 0.3 0  2.734784017903872 0.3 0  2.705802289276642 0.3 0  2.676916713794697 0.3 0  2.648126987654635 0.3 0  2.619432780406184 0.3 0  2.590833779385199 0.3 0  2.562329669847737 0.3 0  2.533920134950189 0.3 0  2.505604855727852 0.3 0  2.477383539822502 0.3 0  2.449255847639465 0.3 0  2.421221492569094 0.3 0  2.393280152486815 0.3 0  2.36543151914496 0.3 0  2.337675285481809 0.3 0  2.310011142385583 0.3 0  2.282438797441587 0.3 0  2.254957931061538 0.3 0  2.227568248063605 0.3 0  2.200269436651085 0.3 0  2.173061204949961 0.3 0  2.145943251515011 0.3 0  2.118915272469994 0.3 0  2.091976978084957 0.3 0  2.065128060700849 0.3 0  2.038368218849433 0.3 0  2.01169717777258 0.3 0  1.985114624111908 0.3 0  1.958620267850966 0.3 0  1.93221382054972 0.3 0  1.905894991850698 0.3 0  1.879663489459713 0.3 0  1.853519019126419 0.3 0  1.827461291053897 0.3 0  1.801490031354372 0.3 0  1.775604937580312 0.3 0  1.74980572560258 0.3 0  1.724092118631866 0.3 0  1.698463829173586 0.3 0  1.672920575782554 0.3 0  1.647462076974085 0.3 0  1.622088043536933 0.3 0  1.5967981978949 0.3 0  1.571592267767068 0.3 0  1.546469970305736 0.3 0  1.521431023814044 0.3 0  1.496475156230927 0.3 0  1.471602093687753 0.3 0  1.446811560490646 0.3 0  1.422103279101731 0.3 0  1.397476971708191 0.3 0  1.37293238939876 0.3 0  1.348469231419202 0.3 0  1.324087248732772 0.3 0  1.299786165921677 0.3 0  1.275565710847046 0.3 0  1.251425617644257 0.3 0  1.227365618676339 0.3 0  1.203385446174014 0.3 0  1.179484853067473 0.3 0  1.155663548773374 0.3 0  1.131921292279077 0.3 0  1.108257802159295 0.3 0  1.084672829009693 0.3 0  1.061166115303374 0.3 0  1.037737392995421 0.3 0  1.01438640299116 0.3 0  0.991112899770314 0.3 0  0.9679166155523955 0.3 0  0.944797284182564 0.3 0  0.921754678526042 0.3 0  0.8987885143602501 0.3 0  0.8758985548820624 0.3 0  0.8530845484099929 0.3 0  0.8303462351786988 0.3 0  0.8076833651172373 0.3 0  0.7850956864865304 0.3 0  0.7625829601354557 0.3 0  0.7401449314598274 0.3 0  0.717781337993959 0.3 0  0.6954919649675473 0.3 0  0.6732765357561226 0.3 0  0.6511348120768439 0.3 0  0.6290665642016573 0.3 0  0.6070715355430467 0.3 0  0.5851494825775325 0.3 0  0.5633001690203812 0.3 0  0.5415233562273221 0.3 0  0.5198187909431873 0.3 0  0.4981862401387795 0.3 0  0.4766254686134248 0.3 0  0.4551362360485234 0.3 0  0.4337182975262159 0.3 0  0.4123714223228037 0.3 0  0.3910953802377493 0.3 0  0.3698899313205595 0.3 0  0.3487548463710963 0.3 0  0.3276898864081783 0.3 0  0.3066948129116018 0.3 0  0.2857694003037476 0.3 0  0.2649134227095047 0.3 0  0.2441266417321288 0.3 0  0.2234088223399122 0.3 0  0.2027597568977288 0.3 0  0.1821792020676698 0.3 0  0.1616669305402443 0.3 0  0.1412227158799362 0.3 0  0.12084633013886 0.3 0  0.1005375673448281 0.3 0  0.08029618164595353 0.3 0  0.06012194778526769 0.3 0  0.04001466495039718 0.3 0  0.01997408913631205 0.3 0  0 0.2800000000000553 0  0 0.2600000000001105 0  0 0.2400000000001658 0  0 0.2200000000002211 0  0 0.2000000000002764 0  0 0.1800000000002244 0  0 0.1600000000001691 0  0 0.140000000000115 0  0 0.1200000000000564 0  1.133778471000506 0.01219539743990768 0  1.003741919047894 0.09354664821474232 0  0.9559421147150347 0.1035858189992458 0  0.9313792160389045 0.1037365237938103 0  0.9788461538460573 0.1033060829993555 0  0.9090102438250753 0.1037269304984056 0  0.8846304212778655 0.1043349840723655 0  0.8581503885465881 0.104741932962923 0  0.8286416220145676 0.1052762843984476 0  0.7982741772533339 0.1053575624517407 0  0.7708789559342691 0.1060290465840416 0  0.741870349714261 0.1078220590984258 0  0.7112469360040695 0.10685702926368 0  0.6783901541417233 0.1079959711853378 0  0.642884733623195 0.1075561996086514 0  0.6056235042367955 0.1085956039602543 0  0.5647007593786924 0.1083187281660325 0  1.1953125 0.01353164693413185 0  1.258148737344733 0.01268350115427042 0  1.320087046516829 0.01426312402966312 0  1.383495130751951 0.01432665475473204 0  1.4453125 0.01315663539200989 0  1.50886768312388 0.01395488397722681 0  0.9942307692307371 0.103330866937657 0  1.119309781943483 0.2802014914557878 0  1.572831235329714 0.01707210522554785 0  1.637611634353954 0.01209340368483431 0  1.709661292005932 0.0146870244871893 0  1.006561890631532 0.07068055446055937 0  1.784793444007901 0.01499371444634687 0  1.855459587353174 0.0
[...]
<PointData  Scalars="pressure"> 
<DataArray  type="Float64"  Name="pressure"  format="ascii">6.8726175345256433e-04  -3.4236754895999583e-01  -2.8856498692272592e-01  -2.4531811229513623e-01  -1.0546909348971283e-01  0.0000000000000000e+00  0.0000000000000000e+00  7.1453363481266440e-04  -5.2354464113986308e-03  -1.1059970295645439e-02  -1.6788025069747681e-02  -2.2421253659899609e-02  -2.7961324547362113e-02  -3.3409780359542458e-02  -3.8768230436728508e-02  -4.4038252196185595e-02  -4.9221303480517051e-02  -5.4319051682581429e-02  -5.9332955037833805e-02  -6.4264443285566505e-02  -6.9115092639548639e-02  -7.3886305680141054e-02  -7.8579626761791713e-02  -8.3196437521851629e-02  -8.7738298429550957e-02  -9.2206521204191622e-02  -9.6602673363419794e-02  -1.0092804653845183e-01  -1.0518431724123337e-01  -1.0937271754237146e-01  -1.1349439266250358e-01  -1.1755140704006406e-01  -1.2154481831057344e-01  -1.2547620982346613e-01  -1.2934678181547316e-01  -1.3315832214002746e-01  -1.3691197155658752e-01  -1.4060950359127769e-01  -1.4425205087486492e-01  -1.4784098918697008e-01  -1.5137847029136497e-01  -1.5486556963070572e-01  -1.5830366134785506e-01  -1.6169439161551286e-01  -1.6503952393763871e-01  -1.6834023940014584e-01  -1.7159837923954371e-01  -1.7481528968727877e-01  -1.7799290815920765e-01  -1.8113264459949274e-01  -1.8423607973312692e-01  -1.8730482604878104e-01  -1.9034079464149731e-01  -1.9334531087523416e-01  -1.9632051362527214e-01  -1.9926775617348524e-01  -2.0218885902765962e-01  -2.0508615360533963e-01  -2.0796037988259594e-01  -2.1081431638057985e-01  -2.1364981088637144e-01  -2.1646704525481222e-01  -2.1926955896042100e-01  -2.2205899575907376e-01  -2.2483657765355677e-01  -2.2760659304370223e-01  -2.3036784516386363e-01  -2.3312237857814441e-01  -2.3587468523656707e-01  -2.3862564777866785e-01  -2.4137876797513330e-01  -2.4413330446449072e-01  -2.4689126542553202e-01  -2.4965893320606955e-01  -2.5243568359635205e-01  -2.5522479507429724e-01  -2.5802858658830174e-01  -2.6084959610926739e-01  -2.6368998181220438e-01  -2.6655364977350193e-01  -2.6944187625256821e-01  -2.7235784631991589e-01  -2.7530687153145877e-01  -2.7829166737572608e-01  -2.8131408241905753e-01  -2.8438029040265184e-01  -2.8749454151141191e-01  -2.9066004916138088e-01  -2.9388104701696288e-01  -2.9717094136925037e-01  -3.0052846781106446e-01  -3.0396391992087279e-01  -3.0748387159206153e-01  -3.1110489559994237e-01  -3.1483338774345632e-01  -3.1868264300942228e-01  -3.2268155070108889e-01  -3.2684312037641172e-01  -3.3118926955770733e-01  -3.3577284856187367e-01  -3.4063909937231956e-01  -3.4550826446078686e-01  -3.5321372639687126e-01  -3.6582751693279475e-01  -3.8401819787573521e-01  -3.9024663821506483e-01  -3.8964964104588601e-01  -3.8290140579618021e-01  -3.7178966194906887e-01  -3.5748162844944215e-01  -3.4132078726512644e-01  -3.2426861560373504e-01  -3.0722324327841821e-01  -2.9253316184470085e-01  -2.6966925033679029e-01  -2.8327370608017965e-01  -2.6379573432976511e-01  -2.5860225823054794e-01  -2.5486240552956535e-01  -2.5226680008521019e-01  -2.4999163800968141e-01  -2.4784233809571546e-01  -2.4594067522467064e-01  -2.4450081980367611e-01  -2.4384797546071646e-01  -2.4446838756655917e-01  -2.4641957054006230e-01  -2.4700330644339233e-01  -2.4618852793889956e-01  -2.4378811684775192e-01  -2.3955085627616587e-01  -2.3337211798867613e-01  -2.2533380905360839e-01  -2.1564524815922964e-01  -2.0490238653441240e-01  -1.9366526554034882e-01  -1.8236445132928714e-01  -1.7139431180554723e-01  -1.6106039806552752e-01  -1.5153888544142949e-01  -1.4294866222134633e-01  -1.3533797906387995e-01  -1.2874298894503255e-01  -1.2316328260479979e-01  -1.1857401751875635e-01  -1.1503443110984575e-01  -1.1239615346578037e-01  -1.1064583421719316e-01  -1.0972482558002429e-01  -1.0945445826469918e-01  -1.0974540284504708e-01  -1.1024215739723550e-01  -1.1092397558252756e-01  -1.1133185807313176e-01  -1.1126251967101861e-01  -1.1041760904040059e-01  -1.0854541697097898e-01  -1.0096724251309737e-01  -9.5016495814301355e-02  -8.7643552512687808e-02  -7.9034658025766702e-02  -6.9426410177644837e-02  -5.9291906690066287e-02  -4.8860126513794497e-02  -3.8736411962484354e-02  -2.9194633531463881e-02  -2.0587268479986664e-02  -1.3172722839391486e-02  -7.1021253149136012e-03  -2.4311734654532263e-03  8.7229079112447177e-04  2.9110034463758613e-03  3.8185848047136723e-03  3.7600104319939600e-03  2.8555289713940142e-03  1.2644147955656595e-03  -8.9849073736903773e-04  -3.6121710863743070e-03  -6.7907409382343114e-03  -1.0396129670084383e-02  -1.4379484128087674e-02  -1.8583289337964919e-02  -2.2855037228980753e-02  -2.6768651545276547e-02  -3.0055814336725162e-02  -3.2231467408005234e-02  -3.2842438382404839e-02  -3.1629770305415035e-02  -2.8512752706241574e-02  -2.3637165487549013e-02  -1.7379498020459384e-02  -1.0218796675070219e-02  -2.8697769564761484e-03  4.0556951604182002e-03  9.9649732588293974e-03  1.4481039861554227e-02  1.7380416460279734e-02  1.8628653099517060e-02  1.8339232499485669e-02  1.6727070071922475e-02  1.4067019004126309e-02  1.0648129325429490e-02  6.7585884220780343e-03  2.6403323326739296e-03  -1.4667141419405518e-03  -5.3210332536956619e-03  -8.6316727103952565e-03  -1.1254613705656710e-02  -1.2820458029149735e-02  -1.3143550943321531e-02  -1.2192660729835504e-02  -9.7981132505091800e-03  -6.1136094586689430e-03  -1.7500869475011351e-03  3.2884433023735887e-03  8.1467347941273568e-03  1.2476138167710584e-02  1.5792940045469214e-02  1.7932613259642665e-02  1.8474709635661724e-02  1.7607400788827238e-02  1.5013142581491265e-02  1.1237550890285599e-02  5.8698184859503075e-03  0.0000000000000000e+00  0.0000000000000000e+00  0.0000000000000000e+00  0.0000000000000000e+00  0.0000000000000000e+00  0.0000000000000000e+00  0.0000000000000000e+00  0.0000000000000000e+00  0.0000000000000000e+00  -5.1253811480427404e-03  -9.3033442328860714e-03  -1.1505480396976913e-02  -1.1463790902016300e-02  -9.4157570350025671e-03  -5.9845689168450599e-03  -1.7554899938355872e-03  2.7608595181417297e-03  7.2181580493517897e-03  1.1412470361223667e-02  1.5209295168432262e-02  1.8453881817206471e-02  2.0917313335094403e-02  2.2305655822204489e-02  2.2273821869136019e-02  2.0512315709377785e-02  1.6859394647249847e-02  1.1340053491347830e-02  4.2901558333683643e-03  -3.6344711141348164e-03  -1.1520105406023877e-02  -1.8314693009054441e-02  -2.3034287852057425e-02  -2.5023261607304493e-02  -2.4023040717186118e-02  -2.0352541769657350e-02  -1.4619715017450560e-02  -7.6803308177629528e-03  -4.7913719860982024e-04  6.2329004865350843e-03  1.1830377706504028e-02  1.5914142382233844e-02  1.8015489536149256e-02  1.8051195793043470e-02  1.5108960762817102e-02  9.7194699486055271e-03  1.3622759910043487e-03  -9.3644812928790622e-03  -2.1892699485931023e-02  -3.5593358395638465e-02  -4.8872283924839582e-02  -6.1070149089693930e-02  -7.1088035006076175e-02  -7.8377348896040436e-02  -8.2808663666440616e-02  -8.4645363089028258e-02  -8.4529443705302409e-02  -8.3176122888757503e-02  -8.1299485565685697e-02  -7.9606283962191451e-02  -7.8547537014521593e-02  -7.8474224229721071e-02  -7.9495843101075631e-02  -8.1738256736407180e-02  -8.5313028109774036e-02  -9.0145826739045476e-02  -9.6171842988452758e-02  -1.0327505452648097e-01  -1.1132379652598264e-01  -1.2017013077724850e-01  -1.2968737230276275e-01  -1.3965972483574013e-01  -1.4995624821109979e-01  -1.6032927839437897e-01  -1.7048576528102943e-01  -1.8008801803833938e-01  -1.8896134980627766e-01  -1.9692161231461294e-01  -2.0392428321258732e-01  -2.1008461639404069e-01  -2.1551471609476650e-01  -2.2047274060952624e-01  -2.2508836505372432e-01  -2.2934198304176648e-01  -2.3303044874545814e-01  -2.3621615893562808e-01  -2.3852966064935027e-01  -2.3994792991579456e-01  -2.4058518150281863e-01  -2.3993361558432341e-01  -2.3836703292931752e-01  -2.3591411393328821e-01  -2.3277061967558216e-01  -2.2898346409261233e-01  -2.2462691162760753e-01  -2.1981563860583325e-01  -2.1467773564380291e-01  -2.0926054813550979e-01  -2.0359024401434880e-01  -1.9776358567594626e-01  -1.9178799853877648e-01  -1.8571212227276218e-01  -1.7955496082597644e-01  -1.7333181245429316e-01  -1.6706053753343203e-01  -1.6075988103042713e-01  -1.5443600218134543e-01  -1.4809649067313857e-01  -1.4174985902725107e-01  -1.3540316769197358e-01  -1.2906005429838835e-01  -1.2272098819970764e-01  -1.1639184606611561e-01  -1.1007360937464880e-01  -1.0376881982423790e-01  -9.7478116765821646e-02  -9.1202633843112474e-02  -8.4944595814371193e-02  -7.8702837560672922e-02  -7.2479715545974127e-02  -6.6274460435499463e-02  -6.0087880244889563e-02  -5.3920471327717143e-02  -4.7771956543648464e-02  -4.1642830975748467e-02  -3.5533115163329632e-02  -2.9442889408078123e-02  -2.3372210618311906e-02  -1.7321098241439591e-02  -1.1289580817421513e-02  -5.2776943267637240e-03  7.1445940106218268e-04  7.1334445140249316e-04  7.1054857939701992e-04  7.0619973293561391e-04  7.0090367252983370e-04  6.9561601853858617e-04  6.9125116318045291e-04  6.8847660879643941e-04  6.8735707707666340e-04  -2.0986432622107110e-01  -2.6582258980830359e-01  -3.7860602090014828e-01  -3.3410357778589950e-01  -3.4316539166223115e-01  -3.1333679479790416e-01  -2.9578414284360388e-01  -2.7999530621745256e-01  -2.6493265034701807e-01  -2.5125652522296876e-01  -2.4003390818013798e-01  -2.2896947466375867e-01  -2.1792258979571003e-01  -2.0662700764639144e-01  -1.9486084314031524e-01  -1.8286806603646716e-01  -1.6997689112338787e-01  -1.6658169406418513e-01  -1.3215092843619164e-01  -1.1374925413288640e-01  -1.0931848509774079e-01  -1.1111511488171094e-01  -1.0336638102330539e-01  -2.8043672921574164e-01  -2.1220485741359615e-01  -7.5469148798483848e-02  -3.6194092255902498e-02  -5.3707149945412744e-03  -2.5181841072296218e-01  3.6695084456695084e-03  -1.7378483018660746e-03  -1.5670238893245564e-01  -1.5955767025414617e-02  -1.8429542310694658e-01  -1.4446967041213099e-01  -3.1319941289607606e-02  -1.0686049866242535e-01  -1.4222565262454501e-01  -8.0385486914204468e-02  -2.7035328124333614e-02  -1.2808118173995933e-01  -2.3614018247410873e-01  9.0520401103992204e-05  -8.1629268545568553e-02  -2.2615258908676747e-01  -1.1189781850318153e-01  1.8191418061541599e-02  -6.7215631256783925e-02  -9.4109563747616337e-02  -3.0444127385564110e-02  1.2760510714060029e-02  5.8334459087722203e-03  -2.3846433292011568e-01  -3.5449036610517106e-03  -7.6233948647003044e-02  1.8242909063997399e-02  -2.3882883590195081e-01  -2.3038145871740373e-01  9.5834361354962712e-03  -1.3256219617046617e-02  -5.6328841705184901e-02  -4.1521175863926556e-02  -8.3916395505642324e-02  -8.6471642715750495e-03  5.7593211451868543e-03  -2.1218465556152660e-01  -1.0926682319225280e-02  -2.4851733494833498e-02  -1.9451984581888296e-01  -3.4886532089204569e-01  -3.8219567272180455e-01  -1.7659607931431320e-01  -8.4555334808852373e-03  1.6833408564391465e-02  -1.5212179194980377e-01  1.8704922550656904e-02  -1.1972819081777586e-01  2.1950669863804187e-02  -8.8072302212709869e-02  1.3726238661271938e-02  -6.9478051067375771e-02  -3.2618388445402963e-02  -5.0700694546946562e-02  8.9464043023244791e-04  -4.3435474979019954e-03  -2.7690539494338424e-03  -2.5001772523656946e-02  -2.4624612412674546e-01  -1.0470511544191544e-02  1.6678975256447189e-02  -2.5607793741879792e-01  -2.4441328282924324e-01  -2.3347153065565704e-01  -2.0015449324370391e-01  -2.2227820762366018e-01  -1.6385664747097234e-01  -1.3887618367652801e-01  -1.0618256538177326e-01  -7.7883613249445899e-02  -9.2581573093708597e-02  -1.2374027144907887e-01  -1.6517659733865511e-01  -6.6690498811106891e-02  -8.5387364088653619e-02  -2.2452888640419933e-02  7.3387927732257805e-03  -1.0259261817839832e-01  -9.7331924189577156e-03  -2.0443239398814227e-02  4.8310336952816875e-03  1.7888563347906918e-02  -1.1985754302211825e-01  1.2088642638693001e-02  -4.3688791930151542e-03  -1.4712893806854857e-02  -1.3493998926088241e-01  -3.2594174387448362e-02  -2.4834935027132275e-02  -9.2025537515549344e-02  -7.8614342355854891e-03  -1.4975304718996574e-01  2.1458085255732563e-03  1.6031140480268413e-03  -1.7971161302373442e-02  -1.6349257599062120e-01  -5.4641476777025078e-02  4.2591751033877927e-03  -1.7641962684549095e-01  -1.8888709350925958e-01  -2.0101258380280879e-01  -2.1195209801908549e-01  -2.2369323323034909e-01  -2.3458954674201177e-01  -2.4588643912936026e-01  -2.5956240036824180e-01  -1.8768638707790647e-01  -2.7399527056990536e-01  -2.8939940736184117e-01  -3.0604773161296739e-01  -1.4756377344248708e-01  -3.2458889326843554e-01  -1.1008628895608605e-01  -1.2064735183045594e-01  -1.1020193295041537e-01  -1.0953601356844110e-01  -3.9554098287925650e-03  -3.0952888278537943e-01  -7.0580102506910937e-03  -1.3962711320235778e-02  -1.1591637670184070e-02  -2.4576243589716668e-01  5.6504477846748271e-03  -3.8091287677451944e-03  -2.4563380381619199e-01  -2.4549179740878424e-01  -2.4438641968147540e-01  -2.4690774735719562e-01  -2.4596772099572975e-01  -2.4967091872181960e-01  -2.4847239027674184e-01  -2.5341559971578487e-01  -2.5194332097261318e-01  -2.5799109578313439e-01  -2.5554982531108800e-01  -2.6271493199091073e-01  -2.5836668274525632e-01  -2.6607210541051518e-01  -2.5919329711581063e-01  -2.6644369435658433e-01  -2.5640938887951709e-01  -2.6271820681208874e-01  -2.4990915229559255e-01  -2.5412113332896041e-01  -2.4037157573580456e-01  -2.6490118808197471e-01  -2.3347741353978235e-01  -2.2439928709906631e-01  -2.5509586908369480e-01  -2.6355227756603100e-01  -2.1507918861253056e-01  -2.0726102709040259e-01  -1.9868766884026684e-01  -1.9155353611981876e-01  -1.8245046379708540e-01  -1.7763211283530794e-01  -1.6863221235962586e-01  -1.6599335625461178e-01  -1.5675670522553911e-01  -1.5685008986578122e-01  -1.4708682725287070e-01  -1.4705664188890494e-01  -1.3879181398861448e-01  -1.3991928691221461e-01  -1.3194900544884677e-01  -1.3435133746995412e-01  -1.2622132873826869e-01  -1.2849598185543862e-01  -1.2139388718340026e-01  -1.2396723017223267e-01  -1.1741958406930995e-01  -1.2024563847320231e-01  -1.1438852528766244e-01  -1.1702973615264943e-01  -1.1248931054149916e-01  -2.5349693120813882e-01  -2.5941676255419616e-01  -1.1425077700696969e-01  -1.1068349036679287e-01  -1.1204894395152314e-01  -1.1038158892687090e-01  -1.1034308473587574e-01  -1.1012232246554597e-01  -1.0871720164568469e-01  -1.0991838415645991e-01  -1.0680461689101906e-01  -1.0925512890641158e-01  -2.1555319411100726e-01  -1.0444325639924119e-01  -1.0772310131871465e-01  -1.0139687432442929e-01  -1.0501325430284872e-01  -9.7526415594589175e-02  -1.0098284344025520e-01  -2.5092741028311066e-01  -2.5610735551400027e-01  -2.6854561357793305e-01  -9.3033703969968004e-02  -9.5696844722774163e-02  -2.6550898466881567e-01  -8.8247742734077414e-02  -8.9487435331240539e-02  -8.3199663839649468e-02  -8.2796536124350770e-02  -7.8536237848128382e-02  -7.6151738682079056e-02  -1.7675972047187874e-01  -7.4603956631050988e-02  -7.0119157312458505e-02  -7.1641645166271334e-02  -6.5052085640608007e-02  -6.9744352968873921e-02  -6.1083401786042171e-02  -2.5030638864295696e-01  -1.4890198435974686e-01  -6.8628003407224095e-02  -5.8424280501972070e-02  -2.4814456317838679e-01  -2.5464600666929355e-01  -2.4180866732413106e-01  -1.3176245272312706e-01  -6.9130929413805664e-02  -5.6384163412464786e-02  -6.9241959206549242e-02  -5.4854524663547122e-02  -6.8931243530194600e-02  -5.3501705498852248e-02  -1.0311947959634273e-01  -4.3978829557780451e-02  -7.9811062381948628e-02  -1.1187832962307873e-01  -6.7416708151317950e-02  -5.1748714805563971e-02  -3.6377117193230404e-02  -3.4530804930011157e-02  -4.8889109878569183e-02  -3.2443121600396189e-02  -4.4987982600016005e-02  -2.9862910469979586e-02  -4.0306744402024031e-02  -2.7206599137261683e-02  -3.4993786312869500e-02  -2.4178872085426004e-02  -2.9228973619161640e-02  -2.1378573288533140e-02  -2.3536725432660201e-02  -1.8703822309313646e-02  -1.8062090154516246e-02  -1.6640385806334545e-02  -1.3180425412288638e-02  -1.5020771138697377e-02  -9.0597529335783057e-03  -1.3933699082039168e-02  -5.3620388633741443e-03  -1.2917385816900174e-02  -1.0972567802737122e-01  -1.1866507768977963e-01  -2.5024890155137965e-03  -1.2001194739574684e-02  -6.0522125118800776e-04  -1.0662940451280656e-02  -1.7464881652432779e-01  8.0437294707987289e-04  -9.2948941345835784e-03  -1.1578599229898762e-01  -1.3265446150285218e-01  -2.4521798901564965e-01  -2.4908613299761140e-01  -2.5883707683366791e-01  -2.5651278512729314e-01  -2.6441700200444135e-01  -2.6288699677393101e-01  -2.7101105376073115e-01  -2.6925093763955738e-01  -2.7857270338930940e-01  -2.7557967699139052e-01  -2.8612454661901116e-01  -2.8103032025532954e-01  -2.9281461786874607e-01  -2.8582434506254073e-01  -2.9935842652639694e-01  -2.9020063002980517e-01  -3.0027606416312119e-01  -2.9015722232977537e-01  -3.0034695569357189e-01  -2.9158364096247597e-01  -2.9897935195248077e-01  -2.9020743786574993e-01  -2.9620077045092724e-01  -2.8779207255064010e-01  -2.9253651094813449e-01  -2.8470414186866327e-01  -2.8838457028970094e-01  -2.8109152112575808e-01  -2.8282723787959335e-01  -2.7696289786533068e-01  -2.7383441247424994e-01  -2.7716896851463613e-01  -2.7047571812326243e-01  -2.7307688904841149e-01  -2.6690121867039163e-01  -2.6904339283357648e-01  -2.6322829310642060e-01  -2.6412692587450259e-01  -2.6565212767230356e-01  -2.5951248898573132e-01  -2.6058741130363927e-01  -2.5546262937403458e-01  -2.5398730370119227e-01  -2.5034156470962726e-01  -2.5142487493148352e-01  -2.4664604543788737e-01  -2.4722952191701386e-01  -2.4284702560422489e-01  -2.7033934317999175e-01  -2.4306976175452280e-01  -2.3897158699861626e-01  -2.3828700715193143e-01  -2.3465410086305530e-01  -2.3511916162170091e-01  -2.3096569295466707e-01  -2.3124127530471367e-01  -2.2723843648755329e-01  -3.0512249527339896e-01  -2.8042715844870919e-01  -2.8820954802035359e-01  -3.0931597812929523e-01  -2.2734508662893194e-01  -2.2344686918779411e-01  -2.2322650889997389e-01  -2.1950644810729478e-01  -2.1959431412351446e-01  -2.1575252091576977e-01  -2.1567169616387796e-01  -2.1192308883911840e-01  -2.1193693740289565e-01  -2.0819690419574621e-01  -2.0799243073590121e-01  -2.0436774242649894e-01  -2.4873086239353895e-01  -2.0401557238909082e-01  -2.0052141566490769e-01  -3.0503800496471661e-01  -2.6514978157140973e-01  -2.3387403893252515e-01  -2.9565415233882025e-01  -2.0008173369428905e-01  -1.9654352537939673e-01  -1.9720974470460426e-01  -1.9302377188144401e-01  -1.9262380674040699e-01  -1.8898060579456541e-01  -1.8937443120856134e-01  -1.8535821000884856e-01  -1.8491931786351568e-01  -1.8132945863214192e-01  -2.7481857042442687e-01  -1.8085363238792346e-01  -1.7721792751805418e-01  -2.0799257599333185e-01  -2.5083350116688619e-01  -1.0829267363763813e-01  -2.6531622698249574e-01  -1.7770805958982419e-01  -1.7359503884885519e-01  -1.7308271718035745e-01  -1.6947440599619573e-01  1.9543315597497584e-03  -7.4573177692446712e-03  2.0386637555753579e-03  -5.9643426824439270e-03  9.8638390533471471e-04  -4.9493408320655458e-03  -1.6877576641357239e-01  -1.6522819611624087e-01  -8.9862261690262846e-02  -1.6581363573436841e-01  -1.6160477754208874e-01  -1.6112754420666492e-01  -1.5741437030886318e-01  -2.5355022412211869e-01  -2.4882305119564524e-01  -2.3523523707734134e-01  -1.6024548619724816e-02  -1.2936300312487857e-03  -4.8397572965652820e-03  -2.0551274592213963e-02  -2.0212871181608204e-02  -7.7516364191873074e-03  -4.8291637108959897e-03  -5.7224107069840120e-03  -2.9602499848974092e-03  -7.4274347822020220e-03  -2.1044608061830962e-03  -9.5998272842085612e-03  -2.1896476257271345e-03  -1.1595259275386665e-02  -2.6871027120822150e-03  -1.3027022161263292e-02  -3.3425805682294305e-03  -1.3462208087487593e-02  -3.6232362754122908e-03  -1.2527918977898419e-02  -3.4455494973077978e-03  -1.0271705251056319e-02  -2.7391684287124650e-03  -7.0765671588127006e-03  -1.8588736966406753e-03  -3