<?xml version="1.0"?>
<VTKFile type="UnstructuredGrid"  version="0.1"  >
<UnstructuredGrid>
<Piece  NumberOfPoints="2945" NumberOfCells="5525">
<Points>
<DataArray  type="Float64"  NumberOfComponents="3"  format="ascii">0 0.1 0  0.95 0.1 0  1 0.1 0  1 0 0  1.5 0 0  3 0 0  3 0.3 0  0 0.3 0  0.0197424558707114 0.1 0  0.03915669042224804 0.1 0  0.05824816022699029 0.1 0  0.07702223050332387 0.1 0  0.09548417327144595 0.1 0  0.1136391897583987 0.1 0  0.1314923700144587 0.1 0  0.1490487330862866 0.1 0  0.1663132263225292 0.1 0  0.1832906857273058 0.1 0  0.1999858946008978 0.1 0  0.216403545770297 0.1 0  0.2325482404045023 0.1 0  0.2484245348165176 0.1 0  0.2640368740372501 0.1 0  0.2793896589642241 0.1 0  0.2944872056237027 0.1 0  0.3093337469555254 0.1 0  0.3239334613687816 0.1 0  0.3382904528528069 0.1 0  0.3524087553122972 0.1 0  0.3662923366391824 0.1 0  0.3799451014768399 0.1 0  0.393370886920506 0.1 0  0.4065734648871676 0.1 0  0.419556546320114 0.1 0  0.4323237821343415 0.1 0  0.4448787573056132 0.1 0  0.4572250047274954 0.1 0  0.4693659926332938 0.1 0  0.4813051343276231 0.1 0  0.4930457849308193 0.1 0  0.5045912455271677 0.1 0  0.5159447600209797 0.1 0  0.5271095174127136 0.1 0  0.5380886618453393 0.1 0  0.5488852725463512 0.1 0  0.5595023868312478 0.1 0  0.5699429904313016 0.1 0  0.5802100167387366 0.1 0  0.5903063508274641 0.1 0  0.6002348329443006 0.1 0  0.6099982499579832 0.1 0  0.6195993483501782 0.1 0  0.6290408246013842 0.1 0  0.6383253354321616 0.1 0  0.6474554910757137 0.1 0  0.6564338522440513 0.1 0  0.6652629482939147 0.1 0  0.6739452579188948 0.1 0  0.6824832240165607 0.1 0  0.6908792415022103 0.1 0  0.6991356755989045 0.1 0  0.7072548438546967 0.1 0  0.7152390281534421 0.1 0  0.7230904746196039 0.1 0  0.7308113906759266 0.1 0  0.7384039435269326 0.1 0  0.7458702676581656 0.1 0  0.7532124631720397 0.1 0  0.7604325921167397 0.1 0  0.7675326856666862 0.1 0  0.7745147374421916 0.1 0  0.7813807123989068 0.1 0  0.7881325374362798 0.1 0  0.7947721131625659 0.1 0  0.8013013031866276 0.1 0  0.8077219449067021 0.1 0  0.8140358419942376 0.1 0  0.8202447685401882 0.1 0  0.8263504700910924 0.1 0  0.8323546643163114 0.1 0  0.8382590362474568 0.1 0  0.8440652473522128 0.1 0  0.8497749272799842 0.1 0  0.8553896837646281 0.1 0  0.8609110933285474 0.1 0  0.866340708855119 0.1 0  0.8716800550492284 0.1 0  0.8769306339052932 0.1 0  0.8820939206038667 0.1 0  0.8871713655604893 0.1 0  0.8921643975475726 0.1 0  0.8970744196575535 0.1 0  0.9019028106970642 0.1 0  0.9066509291259979 0.1 0  0.9113201098984042 0.1 0  0.9159116634553873 0.1 0  0.9204268818729691 0.1 0  0.9248670319440222 0.1 0  0.9292333656649013 0.1 0  0.9335271075812669 0.1 0  0.9377494640511216 0.1 0  0.941901623463222 0.1 0  0.9459847526686701 0.1 0  0.9538461538461205 0.1 0  0.9576923076922409 0.1 0  0.9615384615384381 0.1 0  0.9653846153846337 0.1 0  0.9692307692307542 0.1 0  0.9730769230768747 0.1 0  0.9769230769229952 0.1 0  0.9807692307691157 0.1 0  0.9846153846152361 0.1 0  0.9884615384614317 0.1 0  0.9923076923076356 0.1 0  0.9961538461538395 0.1 0  1 0.09591793123533533 0  1 0.09133596463859224 0  1 0.08619288104391448 0  1 0.08041996484521211 0  1 0.07394008421771697 0  1 0.06666666567302955 0  1 0.05850252932209174 0  1 0.04933859630113544 0  1 0.03905242821848202 0  1 0.02750659386753798 0  1 0.01454683679239736 0  1.015625 0 0  1.03125 0 0  1.046875 0 0  1.0625 0 0  1.078125 0 0  1.09375 0 0  1.109375 0 0  1.125 0 0  1.140625 0 0  1.15625 0 0  1.171875 0 0  1.1875 0 0  1.203125 0 0  1.21875 0 0  1.234375 0 0  1.25 0 0  1.265625 0 0  1.28125 0 0  1.296875 0 0  1.3125 0 0  1.328125 0 0  1.34375 0 0  1.359375 0 0  1.375 0 0  1.390625 0 0  1.40625 0 0  1.421875 0 0  1.4375 0 0  1.453125 0 0  1.46875 0 0  1.484375 0 0  1.515920751924515 0 0  1.531989369316721 0 0  1.54820720925872 0 0  1.564575665560501 0 0  1.581096138674279 0 0  1.597770029901263 0 0  1.614598783332311 0 0  1.631583831055205 0 0  1.64872661129721 0 0  1.666028606716533 0 0  1.683491276608443 0 0  1.701116134125304 0 0  1.718904673324128 0 0  1.736858414799339 0 0  1.754978895814663 0 0  1.773267661782904 0 0  1.791726281103402 0 0  1.810356325314689 0 0  1.8291593848892 0 0  1.848137076690385 0 0  1.867291007717254 0 0  1.886622833871288 0 0  1.90613418642363 0 0  1.925826753299799 0 0  1.945702199101513 0 0  1.96576223584749 0 0  1.986008569283268 0 0  2.006442931928877 0 0  2.02706707547783 0 0  2.047882750887917 0 0  2.06889175187935 0 0  2.090095860038271 0 0  2.111496891648636 0 0  2.133096679109554 0 0  2.154897066851056 0 0  2.176899916687499 0 0  2.199107102752146 0 0  2.22152053937028 0 0  2.244142122958061 0 0  2.266973806444078 0 0  2.290017523268154 0 0  2.313275249499252 0 0  2.336748971745516 0 0  2.360440702338606 0 0  2.384352453384031 0 0  2.408486280477412 0 0  2.432844240041185 0 0  2.457428414757088 0 0  2.482240901796653 0 0  2.507283830121838 0 0  2.532559332080812 0 0  2.558069568787417 0 0  2.583816724966441 0 0  2.60980299606584 0 0  2.636030600971886 0 0  2.662501790984011 0 0  2.689218818279327 0 0  2.716183964547616 0 0  2.743399548861297 0 0  2.77086788244719 0 0  2.798591312896326 0 0  2.826572223178268 0 0  2.854812990138617 0 0  2.883316031690714 0 0  2.912083780657189 0 0  2.941118704633482 0 0  2.970423276998917 0 0  3 0.02999999999994495 0  3 0.05999999999987042 0  3 0.089999999999783 0  3 0.119999999999701 0  3 0.149999999999619 0  3 0.179999999999692 0  3 0.2099999999997737 0  3 0.2399999999998511 0  3 0.2699999999999185 0  2.970138294777171 0.3 0  2.940375666438236 0.3 0  2.910711782853056 0.3 0  2.881146331305122 0.3 0  2.851678975030285 0.3 0  2.822309388626621 0.3 0  2.793037250095074 0.3 0  2.76386223529133 0.3 0  2.734784017903872 0.3 0  2.705802289276642 0.3 0  2.676916713794697 0.3 0  2.648126987654635 0.3 0  2.619432780406184 0.3 0  2.590833779385199 0.3 0  2.562329669847737 0.3 0  2.533920134950189 0.3 0  2.505604855727852 0.3 0  2.477383539822502 0.3 0  2.449255847639465 0.3 0  2.421221492569094 0.3 0  2.393280152486815 0.3 0  2.36543151914496 0.3 0  2.337675285481809 0.3 0  2.310011142385583 0.3 0  2.282438797441587 0.3 0  2.254957931061538 0.3 0  2.227568248063605 0.3 0  2.200269436651085 0.3 0  2.173061204949961 0.3 0  2.145943251515011 0.3 0  2.118915272469994 0.3 0  2.091976978084957 0.3 0  2.065128060700849 0.3 0  2.038368218849433 0.3 0  2.01169717777258 0.3 0  1.985114624111908 0.3 0  1.958620267850966 0.3 0  1.93221382054972 0.3 0  1.905894991850698 0.3 0  1.879663489459713 0.3 0  1.853519019126419 0.3 0  1.827461291053897 0.3 0  1.801490031354372 0.3 0  1.775604937580312 0.3 0  1.74980572560258 0.3 0  1.724092118631866 0.3 0  1.698463829173586 0.3 0  1.672920575782554 0.3 0  1.647462076974085 0.3 0  1.622088043536933 0.3 0  1.5967981978949 0.3 0  1.571592267767068 0.3 0  1.546469970305736 0.3 0  1.521431023814044 0.3 0  1.496475156230927 0.3 0  1.471602093687753 0.3 0  1.446811560490646 0.3 0  1.422103279101731 0.3 0  1.397476971708191 0.3 0  1.37293238939876 0.3 0  1.348469231419202 0.3 0  1.324087248732772 0.3 0  1.299786165921677 0.3 0  1.275565710847046 0.3 0  1.251425617644257 0.3 0  1.227365618676339 0.3 0  1.203385446174014 0.3 0  1.179484853067473 0.3 0  1.155663548773374 0.3 0  1.131921292279077 0.3 0  1.108257802159295 0.3 0  1.084672829009693 0.3 0  1.061166115303374 0.3 0  1.037737392995421 0.3 0  1.01438640299116 0.3 0  0.991112899770314 0.3 0  0.9679166155523955 0.3 0  0.944797284182564 0.3 0  0.921754678526042 0.3 0  0.8987885143602501 0.3 0  0.8758985548820624 0.3 0  0.8530845484099929 0.3 0  0.8303462351786988 0.3 0  0.8076833651172373 0.3 0  0.7850956864865304 0.3 0  0.7625829601354557 0.3 0  0.7401449314598274 0.3 0  0.717781337993959 0.3 0  0.6954919649675473 0.3 0  0.6732765357561226 0.3 0  0.6511348120768439 0.3 0  0.6290665642016573 0.3 0  0.6070715355430467 0.3 0  0.5851494825775325 0.3 0  0.5633001690203812 0.3 0  0.5415233562273221 0.3 0  0.5198187909431873 0.3 0  0.4981862401387795 0.3 0  0.4766254686134248 0.3 0  0.4551362360485234 0.3 0  0.4337182975262159 0.3 0  0.4123714223228037 0.3 0  0.3910953802377493 0.3 0  0.3698899313205595 0.3 0  0.3487548463710963 0.3 0  0.3276898864081783 0.3 0  0.3066948129116018 0.3 0  0.2857694003037476 0.3 0  0.2649134227095047 0.3 0  0.2441266417321288 0.3 0  0.2234088223399122 0.3 0  0.2027597568977288 0.3 0  0.1821792020676698 0.3 0  0.1616669305402443 0.3 0  0.1412227158799362 0.3 0  0.12084633013886 0.3 0  0.1005375673448281 0.3 0  0.08029618164595353 0.3 0  0.06012194778526769 0.3 0  0.04001466495039718 0.3 0  0.01997408913631205 0.3 0  0 0.2800000000000553 0  0 0.2600000000001105 0  0 0.2400000000001658 0  0 0.2200000000002211 0  0 0.2000000000002764 0  0 0.1800000000002244 0  0 0.1600000000001691 0  0 0.140000000000115 0  0 0.1200000000000564 0  1.133778471000506 0.01219539743990768 0  1.003741919047894 0.09354664821474232 0  0.9559421147150347 0.1035858189992458 0  0.9313792160389045 0.1037365237938103 0  0.9788461538460573 0.1033060829993555 0  0.9090102438250753 0.1037269304984056 0  0.8846304212778655 0.1043349840723655 0  0.8581503885465881 0.104741932962923 0  0.8286416220145676 0.1052762843984476 0  0.7982741772533339 0.1053575624517407 0  0.7708789559342691 0.1060290465840416 0  0.741870349714261 0.1078220590984258 0  0.7112469360040695 0.10685702926368 0  0.6783901541417233 0.1079959711853378 0  0.642884733623195 0.1075561996086514 0  0.6056235042367955 0.1085956039602543 0  0.5647007593786924 0.1083187281660325 0  1.1953125 0.01353164693413185 0  1.258148737344733 0.01268350115427042 0  1.320087046516829 0.01426312402966312 0  1.383495130751951 0.01432665475473204 0  1.4453125 0.01315663539200989 0  1.50886768312388 0.01395488397722681 0  0.9942307692307371 0.103330866937657 0  1.119309781943483 0.2802014914557878 0  1.572831235329714 0.01707210522554785 0  1.637611634353954 0.01209340368483431 0  1.709661292005932 0.0146870244871893 0  1.006561890631532 0.07068055446055937 0  1.784793444007901 0.01499371444634687 0  1.855459587353174 0.0
[...]
<PointData  Scalars="pressure"> 
<DataArray  type="Float64"  Name="pressure"  format="ascii">1.2506148637644021e-01  -1.9059283973598767e-01  -2.0229291196995824e-01  -1.4906145451592415e-01  -2.5012540518683759e-02  0.0000000000000000e+00  0.0000000000000000e+00  1.2507569826878201e-01  1.1913876397223735e-01  1.1331435742698591e-01  1.0758658755132014e-01  1.0195382554673625e-01  9.6414442050497207e-02  9.0966885225340396e-02  8.5609583935128700e-02  8.0340988392128387e-02  7.5159633478329324e-02  7.0063946053208717e-02  6.5052473262883659e-02  6.0123799554144042e-02  5.5276431406933016e-02  5.0508980321964839e-02  4.5819992794018501e-02  4.1208111028233338e-02  3.6671887391829749e-02  3.2210024771606741e-02  2.7821086543450748e-02  2.3503803917403161e-02  1.9256692881268356e-02  1.5078528938150185e-02  1.0968166318356946e-02  6.9239060162175859e-03  2.9446600579787884e-03  -9.7097560574442945e-04  -4.8241588808345462e-03  -8.6163534045141515e-03  -1.2348764002849099e-02  -1.6022750946194254e-02  -1.9639534672374167e-02  -2.3200222417492668e-02  -2.6706589387256115e-02  -3.0159635883435974e-02  -3.3560593426395398e-02  -3.6910808156997481e-02  -4.0211708178344706e-02  -4.3464390376472650e-02  -4.6670293276026967e-02  -4.9830598065405671e-02  -5.2946797290402921e-02  -5.6020073240544407e-02  -5.9051717538189073e-02  -6.2043003723860422e-02  -6.4995391340194095e-02  -6.7909990805359616e-02  -7.0788381642217194e-02  -7.3631654109350825e-02  -7.6441190729268582e-02  -7.9218607540308836e-02  -8.1964718233312486e-02  -8.4681268740481583e-02  -8.7369787043247132e-02  -9.0030479060893426e-02  -9.2665717054954980e-02  -9.5276696556987298e-02  -9.7864316975557475e-02  -1.0043128051717684e-01  -1.0297711886747347e-01  -1.0550316083143291e-01  -1.0801218578661974e-01  -1.1050484281605946e-01  -1.1298327347413115e-01  -1.1544716665895004e-01  -1.1789784014474865e-01  -1.2033888332923752e-01  -1.2277003906967124e-01  -1.2519317357790472e-01  -1.2760959144119721e-01  -1.3002080614174641e-01  -1.3242791637379822e-01  -1.3483303645384392e-01  -1.3723674810943740e-01  -1.3964072960192589e-01  -1.4204777414151995e-01  -1.4445891194556421e-01  -1.4687513781907208e-01  -1.4929932439463653e-01  -1.5173315091293152e-01  -1.5417811622550120e-01  -1.5663590606956015e-01  -1.5911256772168750e-01  -1.6160671551668765e-01  -1.6412267474795114e-01  -1.6666293987712197e-01  -1.6923367588554256e-01  -1.7183711951052985e-01  -1.7447753755048698e-01  -1.7716585301745019e-01  -1.7990495307687893e-01  -1.8270184483513024e-01  -1.8557565828034628e-01  -1.8854287066723049e-01  -1.9144441924782449e-01  -1.9563149966177143e-01  -2.0127525798762469e-01  -2.1001551327516618e-01  -2.1369822927393184e-01  -2.1462781878084736e-01  -2.1303905816340485e-01  -2.0962015781381271e-01  -2.0484253101836133e-01  -1.9924961964527768e-01  -1.9326352592438190e-01  -1.8720421177597446e-01  -1.8295651616420186e-01  -1.6908815229544719e-01  -1.9084655253664259e-01  -1.7060482306427341e-01  -1.6364744604209344e-01  -1.5862406555135969e-01  -1.5529138317472535e-01  -1.5278765763313665e-01  -1.5083568561774024e-01  -1.4942112055222720e-01  -1.4855801990678974e-01  -1.4829961155542767e-01  -1.4869781915879152e-01  -1.4952145637933087e-01  -1.4988460561816594e-01  -1.4962702275920631e-01  -1.4887495773679307e-01  -1.4771506437232537e-01  -1.4618946042161168e-01  -1.4427910765105448e-01  -1.4197249544611182e-01  -1.3930324268251107e-01  -1.3628806529840617e-01  -1.3293518249530911e-01  -1.2926821593530677e-01  -1.2530399031495271e-01  -1.2105698239009405e-01  -1.1655108677350536e-01  -1.1181120593748325e-01  -1.0686037618877238e-01  -1.0171886389168246e-01  -9.6415294923205427e-02  -9.0970674773145632e-02  -8.5416424586867865e-02  -7.9783898328154967e-02  -7.4092666353597139e-02  -6.8379445277908416e-02  -6.2665008993824919e-02  -5.6986475636891409e-02  -5.1366530537702494e-02  -4.5828763628380925e-02  -4.0403572265087118e-02  -3.5111916053123388e-02  -2.9976041531518439e-02  -2.0151057547724647e-02  -1.5465520719574084e-02  -1.0962477115818941e-02  -6.6757979069836009e-03  -2.6005807304561265e-03  1.2452506496072760e-03  4.8548662488062935e-03  8.2303340400849308e-03  1.1337935851131306e-02  1.4201146179504954e-02  1.6824856662867576e-02  1.9209582571173247e-02  2.1358023327267155e-02  2.3282017882043027e-02  2.4990050477375028e-02  2.6495713683045530e-02  2.7812204428395430e-02  2.8945035471553169e-02  2.9905881274507818e-02  3.0724861239506556e-02  3.1392745317711676e-02  3.1935083691373871e-02  3.2363713773150490e-02  3.2683984658800506e-02  3.2915864092412581e-02  3.3057615706090317e-02  3.3136048904227104e-02  3.3142886964829678e-02  3.3092931117747533e-02  3.2989066930610059e-02  3.2836449104812704e-02  3.2641333164790572e-02  3.2410142488666867e-02  3.2144952492432981e-02  3.1845069283201445e-02  3.1515024057855771e-02  3.1154506714512975e-02  3.0764915703048682e-02  3.0345168442394373e-02  2.9895243478751322e-02  2.9414176171087589e-02  2.8900889742824509e-02  2.8353495466007319e-02  2.7770451273143763e-02  2.7149916286132739e-02  2.6490892191504127e-02  2.5790379181851498e-02  2.5046952779066541e-02  2.4260402086951176e-02  2.3427483386697496e-02  2.2545358771458968e-02  2.1619831109707194e-02  2.0640799644221344e-02  1.9617841562022443e-02  1.8543523533658856e-02  1.7415151117996484e-02  1.6243983394077181e-02  1.5016785735679279e-02  1.3743195485820892e-02  1.2419934888564353e-02  1.1045710204203951e-02  9.6206588552357943e-03  8.1455115062717808e-03  6.6244746244379007e-03  5.0481470708099024e-03  3.4323982231767463e-03  1.7618011513788252e-03  0.0000000000000000e+00  0.0000000000000000e+00  0.0000000000000000e+00  0.0000000000000000e+00  0.0000000000000000e+00  0.0000000000000000e+00  0.0000000000000000e+00  0.0000000000000000e+00  0.0000000000000000e+00  1.8832274917105838e-03  3.6522584560397223e-03  5.3955555587812442e-03  7.0911461734966203e-03  8.7417523204945460e-03  1.0345996158079834e-02  1.1902904136909418e-02  1.3410779099114638e-02  1.4867286534846303e-02  1.6270571745802220e-02  1.7618092494589722e-02  1.8907458615287615e-02  2.0135472249489462e-02  2.1299990827850428e-02  2.2398564822434405e-02  2.3423990484167472e-02  2.4379234505956762e-02  2.5251140096389308e-02  2.6039738143997924e-02  2.6736935677379364e-02  2.7336616609254859e-02  2.7832043453679518e-02  2.8216815894734952e-02  2.8479951398272391e-02  2.8620567330714743e-02  2.8626445959084250e-02  2.8488448339517899e-02  2.8203139547219640e-02  2.7759166578033016e-02  2.7152202885406602e-02  2.6376163665912323e-02  2.5426823304144443e-02  2.4307479944446583e-02  2.3012153695166258e-02  2.1511777173396241e-02  1.9844484826084960e-02  1.7986458203195638e-02  1.5938621878495748e-02  1.3699745978575468e-02  1.1277629341765263e-02  8.6606449158464979e-03  5.8595906222606324e-03  2.8679028881198674e-03  -3.0561211968623008e-04  -3.6717070063326143e-03  -7.2124034753550254e-03  -1.0944722115854665e-02  -1.4857361729442986e-02  -1.8938170485058033e-02  -2.3200071855753807e-02  -2.7620889804142356e-02  -3.2193058863145399e-02  -3.6918034925709615e-02  -4.1783287655283809e-02  -4.6773567530203494e-02  -5.1882365619399434e-02  -5.7093105044861675e-02  -6.2381381033728152e-02  -6.7723438600018018e-02  -7.3106618570459247e-02  -7.8519421117230079e-02  -8.3888080488047675e-02  -8.9195130797122199e-02  -9.4432170846151908e-02  -9.9534673647673183e-02  -1.0445183193224963e-01  -1.0916357541569754e-01  -1.1362558998186234e-01  -1.1778481757699609e-01  -1.2160630115103656e-01  -1.2494808877312651e-01  -1.2788553572852426e-01  -1.3030683315928812e-01  -1.3210869014619414e-01  -1.3310268795269026e-01  -1.3343973676408155e-01  -1.3290185280382485e-01  -1.3158212402067157e-01  -1.2962965301290197e-01  -1.2673395387452119e-01  -1.2321524853447732e-01  -1.1911217106791169e-01  -1.1457186802794299e-01  -1.0962796322409631e-01  -1.0433398355380266e-01  -9.8763988680577341e-02  -9.3001758322455622e-02  -8.7075494118569408e-02  -8.1002313071915466e-02  -7.4842283350771949e-02  -6.8599636503376332e-02  -6.2304804815056652e-02  -5.5969073099730378e-02  -4.9601987612649480e-02  -4.3214382661184533e-02  -3.6818171775900410e-02  -3.0416294927707331e-02  -2.4013985389727849e-02  -1.7616114689477349e-02  -1.1227045547189311e-02  -4.8488246179732280e-03  1.5182006486547720e-03  7.8705578546771227e-03  1.4207720661846491e-02  2.0528156171604660e-02  2.6831579838169736e-02  3.3117284261544526e-02  3.9384064541574143e-02  4.5632565944236883e-02  5.1861504572066772e-02  5.8071322229348236e-02  6.4261596261035364e-02  7.0432082216651148e-02  7.6582957724383227e-02  8.2713978634283120e-02  8.8825164077955876e-02  9.4916496408430792e-02  1.0098797719359807e-01  1.0703962556110974e-01  1.1307145251311067e-01  1.1908347157456102e-01  1.2507565911310739e-01  1.2507507597709508e-01  1.2507361781546272e-01  1.2507135262535782e-01  1.2506859552420729e-01  1.2506584280924943e-01  1.2506356925107420e-01  1.2506212223326038e-01  1.2506153662238256e-01  -1.4022414289343571e-01  -1.7400978996615415e-01  -2.0768056636502186e-01  -1.8444258850213380e-01  -2.0022465157064992e-01  -1.7073402562191659e-01  -1.5801653477415592e-01  -1.4577565675080945e-01  -1.3343111166785426e-01  -1.2170480111036319e-01  -1.1174350837166178e-01  -1.0165940026271091e-01  -9.1378942759079984e-02  -8.0673328538189329e-02  -6.9364051840923840e-02  -5.7705771989971170e-02  -4.5068475231364730e-02  -1.2717635745789854e-01  -1.0926426011974286e-01  -8.8437802221963041e-02  -6.5539226387172439e-02  -4.3433415199815202e-02  -2.2685025858766646e-02  -1.7967255369954371e-01  -1.2278658342053363e-01  -5.0940918490433211e-03  8.9891712365640294e-03  1.9909687160272929e-02  -1.5466542036723477e-01  2.7041010708055032e-02  3.0759214647869005e-02  -3.1971601965424180e-02  3.2636313960691506e-02  -1.0620820421497559e-01  -8.5876453429778010e-02  3.3010725169773464e-02  -6.4515003056532225e-02  -1.7623936467867588e-02  -3.9679508834526457e-02  3.2462276123090397e-02  -3.5618189891546016e-03  -1.4646115142359273e-01  3.1277427340631693e-02  -1.6689220407570225e-02  -1.3058792158433594e-01  1.2561729290121818e-02  2.9610572990880706e-02  4.3741194118790553e-03  3.0310950588960436e-02  1.2315630932782760e-02  2.7424211495167553e-02  1.8960446447955331e-02  -1.3203517751388424e-01  2.4533101384327471e-02  4.8163987820679786e-02  2.3599299440914732e-02  -1.2484074804829261e-01  -1.1156605139849567e-01  2.6684677572589081e-02  2.1123757793173992e-02  6.8055389130439292e-02  8.2857547970394588e-02  -5.3841347461624535e-03  1.7955632336915127e-02  1.4217800944134109e-02  -9.0313723412889124e-02  2.8257585369447190e-02  2.8236229238089577e-02  -7.1472363281825227e-02  -1.9323505765570015e-01  -2.1268096533067368e-01  -5.2953391762337369e-02  2.6943243968814867e-02  1.0370488338253490e-02  -2.8084839274483176e-02  2.3825103581357584e-02  4.5202885514683431e-03  2.0656241047284241e-02  3.6251313828423851e-02  1.6899793715155473e-02  5.4864925869524156e-02  9.1740309674666537e-02  7.3652862260994573e-02  1.2612037661506358e-02  1.2002545618193811e-01  1.6036937044853722e-03  9.9373711221517835e-02  -1.4957900057804038e-01  8.0242314534003240e-03  5.6868917305755032e-03  -1.6068343984820077e-01  -1.4875068518745943e-01  -1.3277859095339392e-01  -1.1522704374546357e-01  -1.0167336995041140e-01  -3.9969632774716643e-02  -1.4726294583284262e-02  1.8107221419312303e-02  -2.9653978926648849e-02  -5.3941335558720535e-02  -7.4766984201137351e-02  -9.6383475243227587e-02  5.7699746383579595e-02  3.9020554618531079e-02  2.8525755073774976e-02  2.5566436538744446e-02  2.1843898225460744e-02  2.3000631483693350e-02  1.0391715607410953e-01  2.6073132212026992e-02  2.8587890599933437e-02  4.6276863352478163e-03  3.0505171658908158e-02  1.1999506625944999e-01  3.1937319456245832e-02  -1.0384976443807037e-02  3.2849273269124395e-02  3.2977879154096064e-02  -1.3596678801373201e-02  3.1916622328289526e-02  -2.5091683079853957e-02  2.9164618239631290e-02  2.3823794742292858e-02  1.5033989189694907e-02  -3.8679537780743276e-02  2.8331615039169020e-03  1.3476078417012231e-03  -5.1396172858130494e-02  -6.3571543988162740e-02  -7.5295210538096360e-02  -8.5741804420405660e-02  -9.6776464608626031e-02  -1.0681792024947724e-01  -1.1697594176085321e-01  -1.2888521234203629e-01  -1.3424492455073864e-01  -1.4093621932580697e-01  -1.5314901941575862e-01  -1.6556779978267594e-01  -1.1877170400402218e-01  -1.7835316598115911e-01  -7.7349366763733232e-02  -9.8664291597714837e-02  -5.5298342906771394e-02  -3.2892939157074287e-02  1.2041766855069834e-01  -1.8859744827486444e-01  1.6777415161509082e-03  1.1041180007469184e-01  4.4688069532982343e-03  -1.4926295511834428e-01  1.3638979843616345e-03  1.2055224850678534e-01  -1.4920136400627415e-01  -1.4885144073125178e-01  -1.4833432995002691e-01  -1.4889917260874264e-01  -1.4836847064506381e-01  -1.4925741706371842e-01  -1.4859249992646173e-01  -1.4970139834719218e-01  -1.4889185123902596e-01  -1.4997790860827634e-01  -1.4896628731865541e-01  -1.4981002998686313e-01  -1.4858010018721399e-01  -1.4910218629296160e-01  -1.4771394803882226e-01  -1.4802472223907681e-01  -1.4641957204092060e-01  -1.4669117692245381e-01  -1.4491527292018494e-01  -1.4510142037660967e-01  -1.4293132799915398e-01  -1.4709951658572396e-01  -1.4280951449896293e-01  -1.4044954839842286e-01  -1.4526772310987901e-01  -1.4774077884296954e-01  -1.4002860637839504e-01  -1.3739919741143442e-01  -1.3720120504391811e-01  -1.3406165962739244e-01  -1.3372904672863850e-01  -1.3038241470752993e-01  -1.2985173377081072e-01  -1.2649421800851621e-01  -1.2556088570679566e-01  -1.2172721396003337e-01  -1.2067749643308417e-01  -1.1674315553566453e-01  -1.1545597341810540e-01  -1.1160589902821642e-01  -1.0995257647634088e-01  -1.0550731415610040e-01  -1.0402380950683682e-01  -1.0013642956472923e-01  -9.7996133962852228e-02  -9.4183078169236795e-02  -9.1722751886146009e-02  -8.8212133988641195e-02  -8.5324065992123610e-02  -8.2006713846497201e-02  -7.8851404552850501e-02  -1.4529867916036995e-01  -1.4794827719575018e-01  -7.5704036454782853e-02  -7.1981236394595249e-02  -6.9492487250882418e-02  -6.5512776635900549e-02  -6.3475510788747386e-02  -5.9434911440158826e-02  -5.7543884747583013e-02  -5.3248295453141338e-02  -5.1781317306643301e-02  -4.7215737581887469e-02  -1.3722150489331042e-01  -4.6225778388059836e-02  -4.1367249372299575e-02  -4.0895509775829939e-02  -3.5789955908286132e-02  -3.5859448856564828e-02  -3.0509097919060271e-02  -1.4507546993526668e-01  -1.4808469183952336e-01  -1.5034842583778152e-01  -3.1049708521915288e-02  -2.5490778829329992e-02  -1.5023126685976243e-01  -2.6391162010335596e-02  -2.0760651417272402e-02  -2.2118936192580419e-02  -1.6367208943161116e-02  -1.8047013587162014e-02  -1.2257721612288035e-02  -1.2717091647735795e-01  -1.4486461614957395e-02  -8.5000653313893598e-03  -1.0800312964141605e-02  -4.9726086770901234e-03  -7.4844536569753243e-03  -1.7377276183289311e-03  -1.4704746687520828e-01  -1.1270146008668093e-01  -4.3805780487607320e-03  1.2052518979409708e-03  -1.4446309576128238e-01  -1.4849172834618249e-01  -1.4141925089409313e-01  -9.6011620055953331e-02  -1.8503217724365137e-03  3.9951236232631301e-03  7.6808208629655899e-04  6.5203405838149377e-03  3.2126759912511280e-03  8.7081633220636688e-03  -2.5171274804066755e-02  7.0768061256975172e-03  -1.0711055857866277e-02  -4.2528602243342775e-02  5.5192768672956459e-03  1.0711043481421760e-02  1.3936795585666052e-02  1.5740774120853226e-02  1.2608231534571244e-02  1.7369679178001789e-02  1.4404825383191718e-02  1.8901444160601352e-02  1.6031813136838727e-02  2.0232315672468554e-02  1.7527218029262853e-02  2.1472584815648458e-02  1.8938909356373233e-02  2.2562283301202662e-02  2.0168375766874615e-02  2.3567661160988119e-02  2.1394284649230468e-02  2.4563855042996480e-02  2.2486855690947216e-02  2.5385006930818049e-02  2.3514721194097341e-02  2.6091813930248984e-02  2.4336415565570771e-02  2.6736718798390714e-02  -6.1552999656554544e-02  -7.8599392502665927e-02  2.5166229443252790e-02  2.7270121142135600e-02  2.5939859771278218e-02  2.7776172507817404e-02  -1.3268701914542549e-01  2.6616934305032636e-02  2.8178070442394162e-02  -9.5332034792351986e-02  -1.1349929485028575e-01  -1.4336221384877704e-01  -1.4564876320911524e-01  -1.5187999956054596e-01  -1.5030114758272564e-01  -1.5595532142944252e-01  -1.5419670156703247e-01  -1.6011671453283483e-01  -1.5760014323669960e-01  -1.6407365043510241e-01  -1.6055268729601740e-01  -1.6728846777626108e-01  -1.6253540857302148e-01  -1.6949826860287651e-01  -1.6379305224360458e-01  -1.7118041725171049e-01  -1.6463093051648076e-01  -1.6973016982080580e-01  -1.6279887836939183e-01  -1.6807716957707061e-01  -1.6200250919145756e-01  -1.6561162238955479e-01  -1.5964051249802491e-01  -1.6244653349668547e-01  -1.5674374637458044e-01  -1.5885761555337144e-01  -1.5352795870350075e-01  -1.5502121008880471e-01  -1.4998117268933622e-01  -1.5579099211776989e-01  -1.4820197782002939e-01  -1.4492930830851219e-01  -1.4626144883015058e-01  -1.4154113651174782e-01  -1.4248699885876692e-01  -1.3804683531084772e-01  -1.3883131613068489e-01  -1.3452150201273788e-01  -1.3699901933860115e-01  -1.3556948851408782e-01  -1.3098341433014427e-01  -1.3107820015560004e-01  -1.2717205493121184e-01  -1.2685297056398973e-01  -1.2326356856950643e-01  -1.2336754338800668e-01  -1.1964458835068091e-01  -1.1945430888659324e-01  -1.1596831671052477e-01  -1.6097459923378948e-01  -1.1556120333492964e-01  -1.1221028179274756e-01  -1.1234218832108007e-01  -1.0869845277119117e-01  -1.0845945804151297e-01  -1.0502109940681255e-01  -1.0469525247884118e-01  -1.0132902807104824e-01  -1.7628365072554744e-01  -1.5930739846495881e-01  -1.7065202142034552e-01  -1.7407048878842488e-01  -1.0084686289116902e-01  -9.7573427658223119e-02  -9.7944644910964065e-02  -9.4193164753313588e-02  -9.3779549027966286e-02  -9.0423599648297465e-02  -8.9925787785395311e-02  -8.6600228618934363e-02  -8.7075834174102584e-02  -8.3265908695881491e-02  -8.2676816772532399e-02  -7.9396648935313646e-02  -1.2290870591163087e-01  -7.8722268692198560e-02  -7.5529697271043472e-02  -1.6835549207240141e-01  -1.5392116956669269e-01  -1.0881531934774284e-01  -1.5996810278583770e-01  -7.4821295891626199e-02  -7.1550893323403086e-02  -7.2509749736112197e-02  -6.8291457899852484e-02  -6.7630497845667326e-02  -6.4215453741979789e-02  -6.4885117326364081e-02  -6.0805015899694399e-02  -6.0133703871886227e-02  -5.6729046703017712e-02  -1.4304637735963346e-01  -5.6059890790872230e-02  -5.2585408395102243e-02  -8.3523702038727471e-02  -1.2227792060615018e-01  -6.1591150542026601e-02  -1.3465498160565662e-01  -5.3276564936793058e-02  -4.9110680747611622e-02  -4.8428218138012277e-02  -4.4950471105856912e-02  2.7147936952003245e-02  2.8504888187479139e-02  2.7613342744583696e-02  2.8764204942453034e-02  2.8011684509405554e-02  2.8954224224191884e-02  -4.4109385247550335e-02  -4.0675497053661025e-02  -3.6340777398858361e-02  -4.1406536538938755e-02  -3.7156495610849827e-02  -3.6557263778434525e-02  -3.2935567595528362e-02  -1.5034372504339139e-01  -1.4522251965505631e-01  -1.0803810215891677e-01  2.5179175767781375e-02  2.8319674237186170e-02  2.9067754550807262e-02  1.8503349296981438e-02  2.8340970790420375e-02  2.9773803971488419e-02  2.9706381298864021e-02  2.9109382651395784e-02  2.9585818103646473e-02  2.9082669317958658e-02  2.9406940657827906e-02  2.8978343002846182e-02  2.9167325965365896e-02  2.8802949930752563e-02  2.8868432377005572e-02  2.8548777383830996e-02  2.8501086075851521e-02  2.8223166302229482e-02  2.8074467412816592e-02  2.7825911701783512e-02  2.7588318773192001e-02  2.7361797671845323e-02  2.7042967748712326e-02  2.6821310402876962e-02  2.6426766138472287e-02  2.6206638185744546e-02  2.5760177093215399e-02  2.5521390594675349e-02  2.5012839833401242e-02  -3.2331756410478127e-02  -2.8688588315208752e-02  -2.9030035702985339e-02  -2.4913728976477083e-02  -2.4370701771372967e-