<?xml version="1.0"?>
<VTKFile type="UnstructuredGrid"  version="0.1"  >
<UnstructuredGrid>
<Piece  NumberOfPoints="2945" NumberOfCells="5525">
<Points>
<DataArray  type="Float64"  NumberOfComponents="3"  format="ascii">0 0.1 0  0.95 0.1 0  1 0.1 0  1 0 0  1.5 0 0  3 0 0  3 0.3 0  0 0.3 0  0.0197424558707114 0.1 0  0.03915669042224804 0.1 0  0.05824816022699029 0.1 0  0.07702223050332387 0.1 0  0.09548417327144595 0.1 0  0.1136391897583987 0.1 0  0.1314923700144587 0.1 0  0.1490487330862866 0.1 0  0.1663132263225292 0.1 0  0.1832906857273058 0.1 0  0.1999858946008978 0.1 0  0.216403545770297 0.1 0  0.2325482404045023 0.1 0  0.2484245348165176 0.1 0  0.2640368740372501 0.1 0  0.2793896589642241 0.1 0  0.2944872056237027 0.1 0  0.3093337469555254 0.1 0  0.3239334613687816 0.1 0  0.3382904528528069 0.1 0  0.3524087553122972 0.1 0  0.3662923366391824 0.1 0  0.3799451014768399 0.1 0  0.393370886920506 0.1 0  0.4065734648871676 0.1 0  0.419556546320114 0.1 0  0.4323237821343415 0.1 0  0.4448787573056132 0.1 0  0.4572250047274954 0.1 0  0.4693659926332938 0.1 0  0.4813051343276231 0.1 0  0.4930457849308193 0.1 0  0.5045912455271677 0.1 0  0.5159447600209797 0.1 0  0.5271095174127136 0.1 0  0.5380886618453393 0.1 0  0.5488852725463512 0.1 0  0.5595023868312478 0.1 0  0.5699429904313016 0.1 0  0.5802100167387366 0.1 0  0.5903063508274641 0.1 0  0.6002348329443006 0.1 0  0.6099982499579832 0.1 0  0.6195993483501782 0.1 0  0.6290408246013842 0.1 0  0.6383253354321616 0.1 0  0.6474554910757137 0.1 0  0.6564338522440513 0.1 0  0.6652629482939147 0.1 0  0.6739452579188948 0.1 0  0.6824832240165607 0.1 0  0.6908792415022103 0.1 0  0.6991356755989045 0.1 0  0.7072548438546967 0.1 0  0.7152390281534421 0.1 0  0.7230904746196039 0.1 0  0.7308113906759266 0.1 0  0.7384039435269326 0.1 0  0.7458702676581656 0.1 0  0.7532124631720397 0.1 0  0.7604325921167397 0.1 0  0.7675326856666862 0.1 0  0.7745147374421916 0.1 0  0.7813807123989068 0.1 0  0.7881325374362798 0.1 0  0.7947721131625659 0.1 0  0.8013013031866276 0.1 0  0.8077219449067021 0.1 0  0.8140358419942376 0.1 0  0.8202447685401882 0.1 0  0.8263504700910924 0.1 0  0.8323546643163114 0.1 0  0.8382590362474568 0.1 0  0.8440652473522128 0.1 0  0.8497749272799842 0.1 0  0.8553896837646281 0.1 0  0.8609110933285474 0.1 0  0.866340708855119 0.1 0  0.8716800550492284 0.1 0  0.8769306339052932 0.1 0  0.8820939206038667 0.1 0  0.8871713655604893 0.1 0  0.8921643975475726 0.1 0  0.8970744196575535 0.1 0  0.9019028106970642 0.1 0  0.9066509291259979 0.1 0  0.9113201098984042 0.1 0  0.9159116634553873 0.1 0  0.9204268818729691 0.1 0  0.9248670319440222 0.1 0  0.9292333656649013 0.1 0  0.9335271075812669 0.1 0  0.9377494640511216 0.1 0  0.941901623463222 0.1 0  0.9459847526686701 0.1 0  0.9538461538461205 0.1 0  0.9576923076922409 0.1 0  0.9615384615384381 0.1 0  0.9653846153846337 0.1 0  0.9692307692307542 0.1 0  0.9730769230768747 0.1 0  0.9769230769229952 0.1 0  0.9807692307691157 0.1 0  0.9846153846152361 0.1 0  0.9884615384614317 0.1 0  0.9923076923076356 0.1 0  0.9961538461538395 0.1 0  1 0.09591793123533533 0  1 0.09133596463859224 0  1 0.08619288104391448 0  1 0.08041996484521211 0  1 0.07394008421771697 0  1 0.06666666567302955 0  1 0.05850252932209174 0  1 0.04933859630113544 0  1 0.03905242821848202 0  1 0.02750659386753798 0  1 0.01454683679239736 0  1.015625 0 0  1.03125 0 0  1.046875 0 0  1.0625 0 0  1.078125 0 0  1.09375 0 0  1.109375 0 0  1.125 0 0  1.140625 0 0  1.15625 0 0  1.171875 0 0  1.1875 0 0  1.203125 0 0  1.21875 0 0  1.234375 0 0  1.25 0 0  1.265625 0 0  1.28125 0 0  1.296875 0 0  1.3125 0 0  1.328125 0 0  1.34375 0 0  1.359375 0 0  1.375 0 0  1.390625 0 0  1.40625 0 0  1.421875 0 0  1.4375 0 0  1.453125 0 0  1.46875 0 0  1.484375 0 0  1.515920751924515 0 0  1.531989369316721 0 0  1.54820720925872 0 0  1.564575665560501 0 0  1.581096138674279 0 0  1.597770029901263 0 0  1.614598783332311 0 0  1.631583831055205 0 0  1.64872661129721 0 0  1.666028606716533 0 0  1.683491276608443 0 0  1.701116134125304 0 0  1.718904673324128 0 0  1.736858414799339 0 0  1.754978895814663 0 0  1.773267661782904 0 0  1.791726281103402 0 0  1.810356325314689 0 0  1.8291593848892 0 0  1.848137076690385 0 0  1.867291007717254 0 0  1.886622833871288 0 0  1.90613418642363 0 0  1.925826753299799 0 0  1.945702199101513 0 0  1.96576223584749 0 0  1.986008569283268 0 0  2.006442931928877 0 0  2.02706707547783 0 0  2.047882750887917 0 0  2.06889175187935 0 0  2.090095860038271 0 0  2.111496891648636 0 0  2.133096679109554 0 0  2.154897066851056 0 0  2.176899916687499 0 0  2.199107102752146 0 0  2.22152053937028 0 0  2.244142122958061 0 0  2.266973806444078 0 0  2.290017523268154 0 0  2.313275249499252 0 0  2.336748971745516 0 0  2.360440702338606 0 0  2.384352453384031 0 0  2.408486280477412 0 0  2.432844240041185 0 0  2.457428414757088 0 0  2.482240901796653 0 0  2.507283830121838 0 0  2.532559332080812 0 0  2.558069568787417 0 0  2.583816724966441 0 0  2.60980299606584 0 0  2.636030600971886 0 0  2.662501790984011 0 0  2.689218818279327 0 0  2.716183964547616 0 0  2.743399548861297 0 0  2.77086788244719 0 0  2.798591312896326 0 0  2.826572223178268 0 0  2.854812990138617 0 0  2.883316031690714 0 0  2.912083780657189 0 0  2.941118704633482 0 0  2.970423276998917 0 0  3 0.02999999999994495 0  3 0.05999999999987042 0  3 0.089999999999783 0  3 0.119999999999701 0  3 0.149999999999619 0  3 0.179999999999692 0  3 0.2099999999997737 0  3 0.2399999999998511 0  3 0.2699999999999185 0  2.970138294777171 0.3 0  2.940375666438236 0.3 0  2.910711782853056 0.3 0  2.881146331305122 0.3 0  2.851678975030285 0.3 0  2.822309388626621 0.3 0  2.793037250095074 0.3 0  2.76386223529133 0.3 0  2.734784017903872 0.3 0  2.705802289276642 0.3 0  2.676916713794697 0.3 0  2.648126987654635 0.3 0  2.619432780406184 0.3 0  2.590833779385199 0.3 0  2.562329669847737 0.3 0  2.533920134950189 0.3 0  2.505604855727852 0.3 0  2.477383539822502 0.3 0  2.449255847639465 0.3 0  2.421221492569094 0.3 0  2.393280152486815 0.3 0  2.36543151914496 0.3 0  2.337675285481809 0.3 0  2.310011142385583 0.3 0  2.282438797441587 0.3 0  2.254957931061538 0.3 0  2.227568248063605 0.3 0  2.200269436651085 0.3 0  2.173061204949961 0.3 0  2.145943251515011 0.3 0  2.118915272469994 0.3 0  2.091976978084957 0.3 0  2.065128060700849 0.3 0  2.038368218849433 0.3 0  2.01169717777258 0.3 0  1.985114624111908 0.3 0  1.958620267850966 0.3 0  1.93221382054972 0.3 0  1.905894991850698 0.3 0  1.879663489459713 0.3 0  1.853519019126419 0.3 0  1.827461291053897 0.3 0  1.801490031354372 0.3 0  1.775604937580312 0.3 0  1.74980572560258 0.3 0  1.724092118631866 0.3 0  1.698463829173586 0.3 0  1.672920575782554 0.3 0  1.647462076974085 0.3 0  1.622088043536933 0.3 0  1.5967981978949 0.3 0  1.571592267767068 0.3 0  1.546469970305736 0.3 0  1.521431023814044 0.3 0  1.496475156230927 0.3 0  1.471602093687753 0.3 0  1.446811560490646 0.3 0  1.422103279101731 0.3 0  1.397476971708191 0.3 0  1.37293238939876 0.3 0  1.348469231419202 0.3 0  1.324087248732772 0.3 0  1.299786165921677 0.3 0  1.275565710847046 0.3 0  1.251425617644257 0.3 0  1.227365618676339 0.3 0  1.203385446174014 0.3 0  1.179484853067473 0.3 0  1.155663548773374 0.3 0  1.131921292279077 0.3 0  1.108257802159295 0.3 0  1.084672829009693 0.3 0  1.061166115303374 0.3 0  1.037737392995421 0.3 0  1.01438640299116 0.3 0  0.991112899770314 0.3 0  0.9679166155523955 0.3 0  0.944797284182564 0.3 0  0.921754678526042 0.3 0  0.8987885143602501 0.3 0  0.8758985548820624 0.3 0  0.8530845484099929 0.3 0  0.8303462351786988 0.3 0  0.8076833651172373 0.3 0  0.7850956864865304 0.3 0  0.7625829601354557 0.3 0  0.7401449314598274 0.3 0  0.717781337993959 0.3 0  0.6954919649675473 0.3 0  0.6732765357561226 0.3 0  0.6511348120768439 0.3 0  0.6290665642016573 0.3 0  0.6070715355430467 0.3 0  0.5851494825775325 0.3 0  0.5633001690203812 0.3 0  0.5415233562273221 0.3 0  0.5198187909431873 0.3 0  0.4981862401387795 0.3 0  0.4766254686134248 0.3 0  0.4551362360485234 0.3 0  0.4337182975262159 0.3 0  0.4123714223228037 0.3 0  0.3910953802377493 0.3 0  0.3698899313205595 0.3 0  0.3487548463710963 0.3 0  0.3276898864081783 0.3 0  0.3066948129116018 0.3 0  0.2857694003037476 0.3 0  0.2649134227095047 0.3 0  0.2441266417321288 0.3 0  0.2234088223399122 0.3 0  0.2027597568977288 0.3 0  0.1821792020676698 0.3 0  0.1616669305402443 0.3 0  0.1412227158799362 0.3 0  0.12084633013886 0.3 0  0.1005375673448281 0.3 0  0.08029618164595353 0.3 0  0.06012194778526769 0.3 0  0.04001466495039718 0.3 0  0.01997408913631205 0.3 0  0 0.2800000000000553 0  0 0.2600000000001105 0  0 0.2400000000001658 0  0 0.2200000000002211 0  0 0.2000000000002764 0  0 0.1800000000002244 0  0 0.1600000000001691 0  0 0.140000000000115 0  0 0.1200000000000564 0  1.133778471000506 0.01219539743990768 0  1.003741919047894 0.09354664821474232 0  0.9559421147150347 0.1035858189992458 0  0.9313792160389045 0.1037365237938103 0  0.9788461538460573 0.1033060829993555 0  0.9090102438250753 0.1037269304984056 0  0.8846304212778655 0.1043349840723655 0  0.8581503885465881 0.104741932962923 0  0.8286416220145676 0.1052762843984476 0  0.7982741772533339 0.1053575624517407 0  0.7708789559342691 0.1060290465840416 0  0.741870349714261 0.1078220590984258 0  0.7112469360040695 0.10685702926368 0  0.6783901541417233 0.1079959711853378 0  0.642884733623195 0.1075561996086514 0  0.6056235042367955 0.1085956039602543 0  0.5647007593786924 0.1083187281660325 0  1.1953125 0.01353164693413185 0  1.258148737344733 0.01268350115427042 0  1.320087046516829 0.01426312402966312 0  1.383495130751951 0.01432665475473204 0  1.4453125 0.01315663539200989 0  1.50886768312388 0.01395488397722681 0  0.9942307692307371 0.103330866937657 0  1.119309781943483 0.2802014914557878 0  1.572831235329714 0.01707210522554785 0  1.637611634353954 0.01209340368483431 0  1.709661292005932 0.0146870244871893 0  1.006561890631532 0.07068055446055937 0  1.784793444007901 0.01499371444634687 0  1.855459587353174 0.0
[...]
<PointData  Scalars="pressure"> 
<DataArray  type="Float64"  Name="pressure"  format="ascii">1.1753273588489033e-01  -2.0215309394320324e-01  -2.0000305348818279e-01  -1.4720260314654210e-01  -2.0933843601636935e-02  0.0000000000000000e+00  0.0000000000000000e+00  1.1754887489177325e-01  1.1161001546462428e-01  1.0578559073307556e-01  1.0005777687585930e-01  9.4424942612755108e-02  8.8885452277687502e-02  8.3437755241103209e-02  7.8080274476723610e-02  7.2811454689405003e-02  6.7629832997237821e-02  6.2533820343084884e-02  5.7521961855483590e-02  5.2592840691071500e-02  4.7744948758035304e-02  4.2976894807563733e-02  3.8287209748853225e-02  3.3674531021470826e-02  2.9137391208822503e-02  2.4674489786267011e-02  2.0284366540876085e-02  1.5965747894924619e-02  1.1717114642863430e-02  7.5372383950612614e-03  3.4249759620050457e-03  -6.2144139878441828e-04  -4.6030961723878645e-03  -8.5214290124390035e-03  -1.2377605848659446e-02  -1.6173142115791437e-02  -1.9909255728983142e-02  -2.3587354475372822e-02  -2.7208676567737230e-02  -3.0774348886034177e-02  -3.4286241925109505e-02  -3.7745361354865802e-02  -4.1152972290477624e-02  -4.4510473633279993e-02  -4.7819357653168235e-02  -5.1080743801139222e-02  -5.4296141464477338e-02  -5.7466768785374892e-02  -6.0594199724429317e-02  -6.3679659254600132e-02  -6.6724496177684750e-02  -6.9730043926915924e-02  -7.2697846090642754e-02  -7.5629052989204804e-02  -7.8525348320822336e-02  -8.1387865529478354e-02  -8.4218067880166073e-02  -8.7017692043003039e-02  -8.9787550671272962e-02  -9.2529548749369958e-02  -9.5245298334091164e-02  -9.7934964506473640e-02  -1.0060113765999590e-01  -1.0324508828963642e-01  -1.0586775323559092e-01  -1.0847211892885315e-01  -1.1105755917100728e-01  -1.1362553278913512e-01  -1.1617910875809752e-01  -1.1871894297506594e-01  -1.2124741385832309e-01  -1.2376409147725292e-01  -1.2627043718292391e-01  -1.2877045131394702e-01  -1.3126380045879479e-01  -1.3375255797802413e-01  -1.3623816925576418e-01  -1.3872232129096279e-01  -1.4120623756620679e-01  -1.4369230503524991e-01  -1.4618116010403134e-01  -1.4867472889206917e-01  -1.5117619829538823e-01  -1.5368675831903919e-01  -1.5620757519501280e-01  -1.5874199489359408e-01  -1.6129196872564536e-01  -1.6385930779948349e-01  -1.6644607919746274e-01  -1.6905935722164314e-01  -1.7169770153177855e-01  -1.7436630232498421e-01  -1.7706830566805298e-01  -1.7981121762253083e-01  -1.8259795570821455e-01  -1.8543400350689135e-01  -1.8833297700572393e-01  -1.9129879968388036e-01  -1.9434068139380220e-01  -1.9748300371559455e-01  -2.0074695723753072e-01  -2.0393935627533630e-01  -2.0874079519401481e-01  -2.1518739888542998e-01  -2.2565249476524787e-01  -2.2968386025828841e-01  -2.3017979209813172e-01  -2.2746126318538293e-01  -2.2242601553288749e-01  -2.1568474317165340e-01  -2.0793591958149552e-01  -1.9971797147000828e-01  -1.9146195628874707e-01  -1.8516671127798581e-01  -1.6939339028262929e-01  -1.8995229342003073e-01  -1.6917436237858310e-01  -1.6211768004064536e-01  -1.5699839642046143e-01  -1.5360278154166074e-01  -1.5104979443786279e-01  -1.4905554370032664e-01  -1.4760398093024682e-01  -1.4671044313394319e-01  -1.4643355354704299e-01  -1.4683155324591560e-01  -1.4767188437386758e-01  -1.4803451344358157e-01  -1.4776102503096725e-01  -1.4697853264817998e-01  -1.4577175730149128e-01  -1.4418041179652630e-01  -1.4218238568362804e-01  -1.3976414267251944e-01  -1.3696039771464139e-01  -1.3378926712139308e-01  -1.3026033653096394e-01  -1.2640046696754278e-01  -1.2223036915412777e-01  -1.1776870233347048e-01  -1.1304434108842522e-01  -1.0808749046076575e-01  -1.0292704501788219e-01  -9.7588074123507604e-02  -9.2104148764830113e-02  -8.6503780243077408e-02  -8.0816967338837600e-02  -7.5082944201657870e-02  -6.9321393112619048e-02  -6.3570406044789779e-02  -5.7850501018614893e-02  -5.2199419534550713e-02  -4.6637866424008086e-02  -4.1186408461758868e-02  -3.5872781097727555e-02  -3.0714755630521725e-02  -2.5730899261997651e-02  -1.6253121507337161e-02  -1.1757022834861925e-02  -7.4494133733953140e-03  -3.3601477148876642e-03  5.1694604120528734e-04  4.1679807176906673e-03  7.5877222697182415e-03  1.0779587404009607e-02  1.3710646772136395e-02  1.6404497084373734e-02  1.8866435258652149e-02  2.1096424040204714e-02  2.3096665804612310e-02  2.4878256806501242e-02  2.6448795084963617e-02  2.7821143481161166e-02  2.9007862958194731e-02  3.0013587699596188e-02  3.0850775276334091e-02  3.1548033870469359e-02  3.2097653388606547e-02  3.2525308690657347e-02  3.2843518985667619e-02  3.3058705520943185e-02  3.3191902131524877e-02  3.3242673910599027e-02  3.3238531448255927e-02  3.3172665474605470e-02  3.3060569856089003e-02  3.2906137691918649e-02  3.2714862744908639e-02  3.2492757881093758e-02  3.2245639491090425e-02  3.1974783742627681e-02  3.1678817222883154e-02  3.1360316579118246e-02  3.1017435954064917e-02  3.0649375589223413e-02  3.0253256412262761e-02  2.9826941642194106e-02  2.9367629848709866e-02  2.8872608215016197e-02  2.8338787696255127e-02  2.7763752249840519e-02  2.7145350972240436e-02  2.6482610317416437e-02  2.5773121229557196e-02  2.5016511219355032e-02  2.4213836586808965e-02  2.3363383284146805e-02  2.2463834840519968e-02  2.1522790634359797e-02  2.0531282988874921e-02  1.9499866834804355e-02  1.8422029947281655e-02  1.7295592863038053e-02  1.6130622702464754e-02  1.4914684430137602e-02  1.3655286653877769e-02  1.2348329155283784e-02  1.0990930285079314e-02  9.5828134131053077e-03  8.1222042567601418e-03  6.6132562468963060e-03  5.0450405440944472e-03  3.4333914912850457e-03  1.7631936202721266e-03  0.0000000000000000e+00  0.0000000000000000e+00  0.0000000000000000e+00  0.0000000000000000e+00  0.0000000000000000e+00  0.0000000000000000e+00  0.0000000000000000e+00  0.0000000000000000e+00  0.0000000000000000e+00  1.8686092853718208e-03  3.6292494856979092e-03  5.3684087593919797e-03  7.0658119118273636e-03  8.7236129514594637e-03  1.0339455095010924e-02  1.1911146909500537e-02  1.3435493989980533e-02  1.4908520152822605e-02  1.6326729721973490e-02  1.7686136935471587e-02  1.8983316037376040e-02  2.0214565166469266e-02  2.1377867487328575e-02  2.2471604897778490e-02  2.3490172592717788e-02  2.4438539731863825e-02  2.5306353797531964e-02  2.6096190472491173e-02  2.6802668197747379e-02  2.7421937362288411e-02  2.7948794666733907e-02  2.8377767295082790e-02  2.8697710299567102e-02  2.8906121744283177e-02  2.8989114846046885e-02  2.8934321980265063e-02  2.8735045464915357e-02  2.8376028178096487e-02  2.7849470214895949e-02  2.7146258300505603e-02  2.6260397789703176e-02  2.5193289824267412e-02  2.3941044549793802e-02  2.2473450917486992e-02  2.0833866098344846e-02  1.8999472939800914e-02  1.6977486496981619e-02  1.4770203115636163e-02  1.2388252578809229e-02  9.8248908377778169e-03  7.0916212492502101e-03  4.1831115826782414e-03  1.1071842663027912e-03  -2.1482087335665686e-03  -5.5691463957871553e-03  -9.1757883524558066e-03  -1.2962872402729746e-02  -1.6922335926940632e-02  -2.1070948232825879e-02  -2.5391720149437778e-02  -2.9881908272701107e-02  -3.4543330947279509e-02  -3.9364303607322806e-02  -4.4333408078225195e-02  -4.9442611530861491e-02  -5.4674971152262393e-02  -6.0006150751353356e-02  -6.5412477383199066e-02  -7.0878965875571395e-02  -7.6394699926843501e-02  -8.1892760399216766e-02  -8.7351078493995246e-02  -9.2766211053604913e-02  -9.8073817489093273e-02  -1.0323060873989334e-01  -1.0821805349980740e-01  -1.1299509374576158e-01  -1.1751319525366194e-01  -1.2174015854047374e-01  -1.2553841991136108e-01  -1.2897284907404194e-01  -1.3193211041130032e-01  -1.3430609349712727e-01  -1.3588974989448357e-01  -1.3682047549688336e-01  -1.3685214705086027e-01  -1.3606899758493668e-01  -1.3461583542190295e-01  -1.3214829423441507e-01  -1.2900079091622704e-01  -1.2521080471423118e-01  -1.2093640500418679e-01  -1.1621282429610891e-01  -1.1109753073431122e-01  -1.0567193200236802e-01  -1.0002878438364855e-01  -9.4199464293960006e-02  -8.8202761884680375e-02  -8.2105916569652049e-02  -7.5913590268136488e-02  -6.9659883408125539e-02  -6.3357466342412502e-02  -5.7017036473307317e-02  -5.0650773207720989e-02  -4.4272055486688250e-02  -3.7884237253428127e-02  -3.1493177074688544e-02  -2.5104382927528306e-02  -1.8722770024040263e-02  -1.2350659355484590e-02  -5.9884452110889235e-03  3.5994897455966335e-04  6.6939188409807148e-03  1.3011730092393172e-02  1.9313048670200832e-02  2.5597071416411550e-02  3.1862425955498666e-02  3.8109835240346002e-02  4.4337837722572028e-02  5.0546924909246005e-02  5.6736610567732194e-02  6.2906608679825657e-02  6.9057111656325568e-02  7.5187834389322056e-02  8.1298789555120154e-02  8.7389949130034131e-02  9.3461305189090779e-02  9.9512870509953610e-02  1.0554464962453720e-01  1.1155664815714994e-01  1.1754883045883562e-01  1.1754816839748539e-01  1.1754651259412070e-01  1.1754394017278282e-01  1.1754080901846069e-01  1.1753768284460121e-01  1.1753510092202581e-01  1.1753345777089030e-01  1.1753279290496479e-01  -1.3794277801743010e-01  -1.7251845768240387e-01  -2.2290362353509913e-01  -1.9627374616052537e-01  -2.0942315914691573e-01  -1.8143436693283091e-01  -1.6791633128848280e-01  -1.5507113908528197e-01  -1.4225199577564368e-01  -1.3017803567706390e-01  -1.1998834115786150e-01  -1.0972472581284563e-01  -9.9302962237293804e-02  -8.8488084890680246e-02  -7.7094252692908538e-02  -6.5374288925270294e-02  -5.2690601707650206e-02  -1.2421996980836639e-01  -1.0545105456759196e-01  -8.3928293369623860e-02  -6.0745819172315876e-02  -3.8857912524315370e-02  -1.8713551610957148e-02  -1.8036648427792665e-01  -1.2313910193571495e-01  -1.8818418979068812e-03  1.1476415711032667e-02  2.1729106819532530e-02  -1.5294319574515322e-01  2.8294292942498266e-02  3.1550438274139593e-02  -3.9561660051396871e-02  3.2976834749821986e-02  -1.0512733558709185e-01  -8.3977157231853894e-02  3.3010114995457383e-02  -6.2195170853002198e-02  -2.5191085387037980e-02  -3.7297229061347768e-02  3.2313991771083336e-02  -1.1114646743759974e-02  -1.4447797052870445e-01  3.1135642162442613e-02  -1.4750745976348878e-02  -1.3243746351920441e-01  5.0190762342187086e-03  2.9556481771350614e-02  5.6317160332356427e-03  2.2774781434913443e-02  1.3393039161344180e-02  2.7422730596208474e-02  1.9948007018059943e-02  -1.3615188510501533e-01  2.4496576962887623e-02  4.0631485056501646e-02  2.4499672008838853e-02  -1.3040542579715059e-01  -1.1804862999036937e-01  2.7414977496023944e-02  2.1022866019719564e-02  6.0525072639433589e-02  7.5328098977867644e-02  -3.8145886617519547e-03  1.7835199822363975e-02  1.4123572723017966e-02  -9.7378752123993856e-02  2.8744251469057961e-02  2.8419687657232084e-02  -7.8760498750407512e-02  -2.0596119529816001e-01  -2.2730991637339992e-01  -6.0352749355477409e-02  2.7015223985239260e-02  1.0323401880490099e-02  -3.5556104676474548e-02  2.3885730777787589e-02  -2.9880161442878890e-03  2.0735076352139250e-02  2.8730477677295536e-02  1.6964110404576994e-02  4.7340967131885535e-02  8.4213867131130507e-02  6.6127225455753766e-02  1.2630583144453764e-02  1.1249747646118527e-01  1.5958226380282658e-03  9.1844767013051457e-02  -1.4774952028651950e-01  8.0039097516481691e-03  5.6812701233123260e-03  -1.5905973896133535e-01  -1.4686316554230502e-01  -1.3575120653391959e-01  -1.1477737750959649e-01  -1.0849710167592895e-01  -4.7413854808857826e-02  -2.2217570352733515e-02  1.0591956761500987e-02  -2.7400531191722654e-02  -5.1535890381170409e-02  -7.2605580645350318e-02  -9.4830612750155877e-02  5.0168474793801383e-02  3.1486439923853735e-02  2.8849112486283402e-02  2.5619029565433965e-02  1.4305090282606285e-02  2.2932289363024879e-02  9.6390450532509345e-02  2.6063892496318710e-02  2.8570057072818941e-02  -2.9193082424844885e-03  3.0404817147353498e-02  1.1246783172149927e-01  3.1774632082798980e-02  -1.7943967824619107e-02  3.2761945639973401e-02  3.3125425536330882e-02  -9.9907639959938913e-03  3.2476871244615145e-02  -3.2669382256037445e-02  3.0183447935591409e-02  2.5357695085916197e-02  1.7166222753585307e-02  -4.6284386132153750e-02  5.6492402727421421e-03  1.3506944280949650e-03  -5.9039263076193269e-02  -7.1268282175717471e-02  -8.3066214737988836e-02  -9.3604113863134705e-02  -1.0476939852451274e-01  -1.1496802021782365e-01  -1.2533343097436905e-01  -1.3755989641850783e-01  -1.3165658286621329e-01  -1.5003036346373852e-01  -1.6279250455435151e-01  -1.7591974273070687e-01  -1.1539229075199170e-01  -1.8964066949449626e-01  -7.2635482830976664e-02  -9.4448465417516794e-02  -5.0547782290053273e-02  -2.8580616280043155e-02  1.1288908803846029e-01  -1.9334239298572947e-01  1.6623026582475828e-03  1.0288300578270443e-01  4.4430140339187093e-03  -1.4740430130807924e-01  1.3674865416292718e-03  1.1302539338615505e-01  -1.4733397829842998e-01  -1.4697810927928392e-01  -1.4644174878433019e-01  -1.4703372353894020e-01  -1.4648494479271054e-01  -1.4740694444311028e-01  -1.4672097811808976e-01  -1.4786355919039038e-01  -1.4702993019463648e-01  -1.4814274175711187e-01  -1.4710328593098485e-01  -1.4796546854401807e-01  -1.4670333550905948e-01  -1.4724584360698992e-01  -1.4582073285933264e-01  -1.4617357746681905e-01  -1.4452106296581763e-01  -1.4487507166147867e-01  -1.4303598892316557e-01  -1.4336555959452801e-01  -1.4109636905279554e-01  -1.4545174044687254e-01  -1.4081779234693181e-01  -1.3848534452092101e-01  -1.4377073573862673e-01  -1.4636732083106554e-01  -1.3791059940276759e-01  -1.3528093627105564e-01  -1.3492938280564262e-01  -1.3176598117448740e-01  -1.3126579392838314e-01  -1.2788842960404936e-01  -1.2717259226468591e-01  -1.2379324048318292e-01  -1.2264618304526519e-01  -1.1883476746865936e-01  -1.1752004070930061e-01  -1.1359161056273147e-01  -1.1204616876478969e-01  -1.0823742125254728e-01  -1.0630276376371112e-01  -1.0196760737780956e-01  -1.0015836512348127e-01  -9.6399505471635560e-02  -9.3944967515443206e-02  -9.0311330021779421e-02  -8.7525288790151465e-02  -8.4256323796005478e-02  -8.1028967679724062e-02  -7.8005797829217183e-02  -7.4530023841217471e-02  -1.4416218863479452e-01  -1.4703275141226507e-01  -7.1696048693427647e-02  -6.7618274340171064e-02  -6.5511150462643317e-02  -6.1238542976725034e-02  -5.9579337962049658e-02  -5.5253527056226041e-02  -5.3759382351913340e-02  -4.9202712582056912e-02  -4.8134601513449615e-02  -4.3339205793713538e-02  -1.3534464553952924e-01  -4.2738018814470882e-02  -3.7683580015533125e-02  -3.7580976934882680e-02  -3.2313925171579168e-02  -3.2729565650162842e-02  -2.7248656056344755e-02  -1.4442090163972626e-01  -1.4774557243791889e-01  -1.4851535631808052e-01  -2.8104262436480818e-02  -2.2448489310091996e-02  -1.4908463491269078e-01  -2.3624135079363628e-02  -1.7931775042653447e-02  -1.9532671950067838e-02  -1.3745020934590832e-02  -1.5632718354047635e-02  -9.8327673101417865e-03  -1.2473840522554497e-01  -1.2242128783933921e-02  -6.2625385332244175e-03  -8.7112813268110621e-03  -2.9080795344012763e-03  -5.5482421795044340e-03  1.6327451702921399e-04  -1.4512131626029467e-01  -1.0964564258394059e-01  -2.5858307665764832e-03  2.9541362792912299e-03  -1.4438288155011844e-01  -1.4882569499046708e-01  -1.4100485886454392e-01  -9.2533191215688135e-02  -1.9422470872001931e-04  5.5993276619059878e-03  2.2957583888734926e-03  7.9908468510275586e-03  4.6183544040349252e-03  1.0057002265299809e-02  -2.1819439126069543e-02  8.7980206946924096e-03  -8.0586355423655359e-03  -3.8489202090682628e-02  6.8156505090761462e-03  1.1947181083564663e-02  1.5251678086565358e-02  1.6940818532861529e-02  1.3741677671120377e-02  1.8462825129650480e-02  1.5444624766398395e-02  1.9893404193926312e-02  1.6987596094840331e-02  2.1129218064577290e-02  1.8408325560334390e-02  2.2284460872969952e-02  1.9755413061705338e-02  2.3296759292758009e-02  2.0931699392557918e-02  2.4234380371907008e-02  2.2110796313151642e-02  2.5166375573352252e-02  2.3164897948494460e-02  2.5934540551273842e-02  2.4160449677460269e-02  2.6594938590315715e-02  2.4960776378546903e-02  2.7201060130332456e-02  -5.7075291207143039e-02  -7.4973018216377141e-02  2.5767835709169882e-02  2.7700800654831718e-02  2.6515916398435452e-02  2.8177680353492513e-02  -1.3009163096182902e-01  2.7167144397872250e-02  2.8551621118632946e-02  -9.1039106986288726e-02  -1.0988685823761184e-01  -1.4390951131192489e-01  -1.4679475351628249e-01  -1.5292122546461079e-01  -1.5205813624575545e-01  -1.5781877844068021e-01  -1.5677410761421179e-01  -1.6296379720498308e-01  -1.6111602261102620e-01  -1.6809528879256019e-01  -1.6503595096555046e-01  -1.7253523957767658e-01  -1.6796155725511108e-01  -1.7591543057793954e-01  -1.7013321753954175e-01  -1.7878376883003699e-01  -1.7183203007687564e-01  -1.7794904693796143e-01  -1.7048432548143319e-01  -1.7673490754050772e-01  -1.7020645558088390e-01  -1.7456263437003081e-01  -1.6810391084279347e-01  -1.7153303733463432e-01  -1.6535159390232881e-01  -1.6797577033411687e-01  -1.6219940233768368e-01  -1.6411462468191007e-01  -1.5867093385594133e-01  -1.6357470860724771e-01  -1.5644163913876585e-01  -1.5322233778804645e-01  -1.5493610635069260e-01  -1.4985907097121043e-01  -1.5111882157991069e-01  -1.4636399905374919e-01  -1.4740427834123335e-01  -1.4282151299126353e-01  -1.4499010878501645e-01  -1.4412682379298672e-01  -1.3925786503174031e-01  -1.3953647010346681e-01  -1.3540793650755681e-01  -1.3487260139243540e-01  -1.3127754442548098e-01  -1.3156415018199705e-01  -1.2764775067187620e-01  -1.2760144475779109e-01  -1.2395105028816197e-01  -1.6292267073205402e-01  -1.2366082056471091e-01  -1.2017283235728468e-01  -1.2015356958116503e-01  -1.1651315789982121e-01  -1.1640413457924775e-01  -1.1283454446111020e-01  -1.1261939746699330e-01  -1.0913636700840711e-01  -1.8387283068452526e-01  -1.6562211819512845e-01  -1.7537599729212672e-01  -1.8324441953968890e-01  -1.0876227567816385e-01  -1.0537422728462606e-01  -1.0563710250636542e-01  -1.0189152290730995e-01  -1.0156945015445892e-01  -9.8124742515587143e-02  -9.7702800065809073e-02  -9.4300046678617910e-02  -9.4691884507371094e-02  -9.0894573280110857e-02  -9.0374968334664837e-02  -8.7032353928061759e-02  -1.3068824650640454e-01  -8.6415954492129493e-02  -8.3168825387225087e-02  -1.7795794628417980e-01  -1.5772849427319927e-01  -1.1646421065699343e-01  -1.6947566644923803e-01  -8.2508594442342695e-02  -7.9189829887430216e-02  -8.0096457605259894e-02  -7.5883732975920770e-02  -7.5269160292818937e-02  -7.1813307024732376e-02  -7.2434156371842459e-02  -6.8365266687589715e-02  -6.7734873672569279e-02  -6.4297451274915166e-02  -1.5190143350608717e-01  -6.3662168178240941e-02  -6.0159233469276027e-02  -9.1068737791586876e-02  -1.3056806116198469e-01  -5.8117748603510218e-02  -1.4332254534038866e-01  -6.0815346027685839e-02  -5.6658602159888487e-02  -5.6005636400866199e-02  -5.2505130663480601e-02  2.7677102984711936e-02  2.8855813143302357e-02  2.8115025435903416e-02  2.9090533747034165e-02  2.8479536617699284e-02  2.9255973140913657e-02  -5.1688605297550830e-02  -4.8234955473374391e-02  -3.3509005992530559e-02  -4.8941024706990494e-02  -4.4697985364805133e-02  -4.4119565888614758e-02  -4.0482165148953787e-02  -1.4852199748742098e-01  -1.4710815409466776e-01  -1.1608188096257847e-01  2.5918717002330307e-02  2.8748674623008182e-02  2.9343728938987811e-02  1.9797338161902867e-02  2.8700483318273396e-02  2.9919472761273776e-02  2.9843024045636178e-02  2.9358569476927911e-02  2.9713209579286890e-02  2.9302724103263268e-02  2.9524930711411431e-02  2.9169438907289281e-02  2.9276526812046171e-02  2.8964785789618513e-02  2.8967246624217114e-02  2.8682653890500731e-02  2.8588846769046147e-02  2.8330932940107110e-02  2.8149870108383209e-02  2.7909564772177174e-02  2.7650837821558440e-02  2.7424844532066596e-02  2.7092284472770494e-02  2.6867434858347212e-02  2.6463641040501848e-02  2.6239878268035834e-02  2.5785199606034235e-02  2.5546280312191801e-02  2.5027835622431840e-02  -3.9895175129592543e-02  -3.6238438891410943e-02  -3.6563950736189656e-02  -3.2452272859079770e-02  -3.1922789108756795