<?xml version="1.0"?>
<VTKFile type="UnstructuredGrid"  version="0.1"  >
<UnstructuredGrid>
<Piece  NumberOfPoints="2945" NumberOfCells="5525">
<Points>
<DataArray  type="Float64"  NumberOfComponents="3"  format="ascii">0 0.1 0  0.95 0.1 0  1 0.1 0  1 0 0  1.5 0 0  3 0 0  3 0.3 0  0 0.3 0  0.0197424558707114 0.1 0  0.03915669042224804 0.1 0  0.05824816022699029 0.1 0  0.07702223050332387 0.1 0  0.09548417327144595 0.1 0  0.1136391897583987 0.1 0  0.1314923700144587 0.1 0  0.1490487330862866 0.1 0  0.1663132263225292 0.1 0  0.1832906857273058 0.1 0  0.1999858946008978 0.1 0  0.216403545770297 0.1 0  0.2325482404045023 0.1 0  0.2484245348165176 0.1 0  0.2640368740372501 0.1 0  0.2793896589642241 0.1 0  0.2944872056237027 0.1 0  0.3093337469555254 0.1 0  0.3239334613687816 0.1 0  0.3382904528528069 0.1 0  0.3524087553122972 0.1 0  0.3662923366391824 0.1 0  0.3799451014768399 0.1 0  0.393370886920506 0.1 0  0.4065734648871676 0.1 0  0.419556546320114 0.1 0  0.4323237821343415 0.1 0  0.4448787573056132 0.1 0  0.4572250047274954 0.1 0  0.4693659926332938 0.1 0  0.4813051343276231 0.1 0  0.4930457849308193 0.1 0  0.5045912455271677 0.1 0  0.5159447600209797 0.1 0  0.5271095174127136 0.1 0  0.5380886618453393 0.1 0  0.5488852725463512 0.1 0  0.5595023868312478 0.1 0  0.5699429904313016 0.1 0  0.5802100167387366 0.1 0  0.5903063508274641 0.1 0  0.6002348329443006 0.1 0  0.6099982499579832 0.1 0  0.6195993483501782 0.1 0  0.6290408246013842 0.1 0  0.6383253354321616 0.1 0  0.6474554910757137 0.1 0  0.6564338522440513 0.1 0  0.6652629482939147 0.1 0  0.6739452579188948 0.1 0  0.6824832240165607 0.1 0  0.6908792415022103 0.1 0  0.6991356755989045 0.1 0  0.7072548438546967 0.1 0  0.7152390281534421 0.1 0  0.7230904746196039 0.1 0  0.7308113906759266 0.1 0  0.7384039435269326 0.1 0  0.7458702676581656 0.1 0  0.7532124631720397 0.1 0  0.7604325921167397 0.1 0  0.7675326856666862 0.1 0  0.7745147374421916 0.1 0  0.7813807123989068 0.1 0  0.7881325374362798 0.1 0  0.7947721131625659 0.1 0  0.8013013031866276 0.1 0  0.8077219449067021 0.1 0  0.8140358419942376 0.1 0  0.8202447685401882 0.1 0  0.8263504700910924 0.1 0  0.8323546643163114 0.1 0  0.8382590362474568 0.1 0  0.8440652473522128 0.1 0  0.8497749272799842 0.1 0  0.8553896837646281 0.1 0  0.8609110933285474 0.1 0  0.866340708855119 0.1 0  0.8716800550492284 0.1 0  0.8769306339052932 0.1 0  0.8820939206038667 0.1 0  0.8871713655604893 0.1 0  0.8921643975475726 0.1 0  0.8970744196575535 0.1 0  0.9019028106970642 0.1 0  0.9066509291259979 0.1 0  0.9113201098984042 0.1 0  0.9159116634553873 0.1 0  0.9204268818729691 0.1 0  0.9248670319440222 0.1 0  0.9292333656649013 0.1 0  0.9335271075812669 0.1 0  0.9377494640511216 0.1 0  0.941901623463222 0.1 0  0.9459847526686701 0.1 0  0.9538461538461205 0.1 0  0.9576923076922409 0.1 0  0.9615384615384381 0.1 0  0.9653846153846337 0.1 0  0.9692307692307542 0.1 0  0.9730769230768747 0.1 0  0.9769230769229952 0.1 0  0.9807692307691157 0.1 0  0.9846153846152361 0.1 0  0.9884615384614317 0.1 0  0.9923076923076356 0.1 0  0.9961538461538395 0.1 0  1 0.09591793123533533 0  1 0.09133596463859224 0  1 0.08619288104391448 0  1 0.08041996484521211 0  1 0.07394008421771697 0  1 0.06666666567302955 0  1 0.05850252932209174 0  1 0.04933859630113544 0  1 0.03905242821848202 0  1 0.02750659386753798 0  1 0.01454683679239736 0  1.015625 0 0  1.03125 0 0  1.046875 0 0  1.0625 0 0  1.078125 0 0  1.09375 0 0  1.109375 0 0  1.125 0 0  1.140625 0 0  1.15625 0 0  1.171875 0 0  1.1875 0 0  1.203125 0 0  1.21875 0 0  1.234375 0 0  1.25 0 0  1.265625 0 0  1.28125 0 0  1.296875 0 0  1.3125 0 0  1.328125 0 0  1.34375 0 0  1.359375 0 0  1.375 0 0  1.390625 0 0  1.40625 0 0  1.421875 0 0  1.4375 0 0  1.453125 0 0  1.46875 0 0  1.484375 0 0  1.515920751924515 0 0  1.531989369316721 0 0  1.54820720925872 0 0  1.564575665560501 0 0  1.581096138674279 0 0  1.597770029901263 0 0  1.614598783332311 0 0  1.631583831055205 0 0  1.64872661129721 0 0  1.666028606716533 0 0  1.683491276608443 0 0  1.701116134125304 0 0  1.718904673324128 0 0  1.736858414799339 0 0  1.754978895814663 0 0  1.773267661782904 0 0  1.791726281103402 0 0  1.810356325314689 0 0  1.8291593848892 0 0  1.848137076690385 0 0  1.867291007717254 0 0  1.886622833871288 0 0  1.90613418642363 0 0  1.925826753299799 0 0  1.945702199101513 0 0  1.96576223584749 0 0  1.986008569283268 0 0  2.006442931928877 0 0  2.02706707547783 0 0  2.047882750887917 0 0  2.06889175187935 0 0  2.090095860038271 0 0  2.111496891648636 0 0  2.133096679109554 0 0  2.154897066851056 0 0  2.176899916687499 0 0  2.199107102752146 0 0  2.22152053937028 0 0  2.244142122958061 0 0  2.266973806444078 0 0  2.290017523268154 0 0  2.313275249499252 0 0  2.336748971745516 0 0  2.360440702338606 0 0  2.384352453384031 0 0  2.408486280477412 0 0  2.432844240041185 0 0  2.457428414757088 0 0  2.482240901796653 0 0  2.507283830121838 0 0  2.532559332080812 0 0  2.558069568787417 0 0  2.583816724966441 0 0  2.60980299606584 0 0  2.636030600971886 0 0  2.662501790984011 0 0  2.689218818279327 0 0  2.716183964547616 0 0  2.743399548861297 0 0  2.77086788244719 0 0  2.798591312896326 0 0  2.826572223178268 0 0  2.854812990138617 0 0  2.883316031690714 0 0  2.912083780657189 0 0  2.941118704633482 0 0  2.970423276998917 0 0  3 0.02999999999994495 0  3 0.05999999999987042 0  3 0.089999999999783 0  3 0.119999999999701 0  3 0.149999999999619 0  3 0.179999999999692 0  3 0.2099999999997737 0  3 0.2399999999998511 0  3 0.2699999999999185 0  2.970138294777171 0.3 0  2.940375666438236 0.3 0  2.910711782853056 0.3 0  2.881146331305122 0.3 0  2.851678975030285 0.3 0  2.822309388626621 0.3 0  2.793037250095074 0.3 0  2.76386223529133 0.3 0  2.734784017903872 0.3 0  2.705802289276642 0.3 0  2.676916713794697 0.3 0  2.648126987654635 0.3 0  2.619432780406184 0.3 0  2.590833779385199 0.3 0  2.562329669847737 0.3 0  2.533920134950189 0.3 0  2.505604855727852 0.3 0  2.477383539822502 0.3 0  2.449255847639465 0.3 0  2.421221492569094 0.3 0  2.393280152486815 0.3 0  2.36543151914496 0.3 0  2.337675285481809 0.3 0  2.310011142385583 0.3 0  2.282438797441587 0.3 0  2.254957931061538 0.3 0  2.227568248063605 0.3 0  2.200269436651085 0.3 0  2.173061204949961 0.3 0  2.145943251515011 0.3 0  2.118915272469994 0.3 0  2.091976978084957 0.3 0  2.065128060700849 0.3 0  2.038368218849433 0.3 0  2.01169717777258 0.3 0  1.985114624111908 0.3 0  1.958620267850966 0.3 0  1.93221382054972 0.3 0  1.905894991850698 0.3 0  1.879663489459713 0.3 0  1.853519019126419 0.3 0  1.827461291053897 0.3 0  1.801490031354372 0.3 0  1.775604937580312 0.3 0  1.74980572560258 0.3 0  1.724092118631866 0.3 0  1.698463829173586 0.3 0  1.672920575782554 0.3 0  1.647462076974085 0.3 0  1.622088043536933 0.3 0  1.5967981978949 0.3 0  1.571592267767068 0.3 0  1.546469970305736 0.3 0  1.521431023814044 0.3 0  1.496475156230927 0.3 0  1.471602093687753 0.3 0  1.446811560490646 0.3 0  1.422103279101731 0.3 0  1.397476971708191 0.3 0  1.37293238939876 0.3 0  1.348469231419202 0.3 0  1.324087248732772 0.3 0  1.299786165921677 0.3 0  1.275565710847046 0.3 0  1.251425617644257 0.3 0  1.227365618676339 0.3 0  1.203385446174014 0.3 0  1.179484853067473 0.3 0  1.155663548773374 0.3 0  1.131921292279077 0.3 0  1.108257802159295 0.3 0  1.084672829009693 0.3 0  1.061166115303374 0.3 0  1.037737392995421 0.3 0  1.01438640299116 0.3 0  0.991112899770314 0.3 0  0.9679166155523955 0.3 0  0.944797284182564 0.3 0  0.921754678526042 0.3 0  0.8987885143602501 0.3 0  0.8758985548820624 0.3 0  0.8530845484099929 0.3 0  0.8303462351786988 0.3 0  0.8076833651172373 0.3 0  0.7850956864865304 0.3 0  0.7625829601354557 0.3 0  0.7401449314598274 0.3 0  0.717781337993959 0.3 0  0.6954919649675473 0.3 0  0.6732765357561226 0.3 0  0.6511348120768439 0.3 0  0.6290665642016573 0.3 0  0.6070715355430467 0.3 0  0.5851494825775325 0.3 0  0.5633001690203812 0.3 0  0.5415233562273221 0.3 0  0.5198187909431873 0.3 0  0.4981862401387795 0.3 0  0.4766254686134248 0.3 0  0.4551362360485234 0.3 0  0.4337182975262159 0.3 0  0.4123714223228037 0.3 0  0.3910953802377493 0.3 0  0.3698899313205595 0.3 0  0.3487548463710963 0.3 0  0.3276898864081783 0.3 0  0.3066948129116018 0.3 0  0.2857694003037476 0.3 0  0.2649134227095047 0.3 0  0.2441266417321288 0.3 0  0.2234088223399122 0.3 0  0.2027597568977288 0.3 0  0.1821792020676698 0.3 0  0.1616669305402443 0.3 0  0.1412227158799362 0.3 0  0.12084633013886 0.3 0  0.1005375673448281 0.3 0  0.08029618164595353 0.3 0  0.06012194778526769 0.3 0  0.04001466495039718 0.3 0  0.01997408913631205 0.3 0  0 0.2800000000000553 0  0 0.2600000000001105 0  0 0.2400000000001658 0  0 0.2200000000002211 0  0 0.2000000000002764 0  0 0.1800000000002244 0  0 0.1600000000001691 0  0 0.140000000000115 0  0 0.1200000000000564 0  1.133778471000506 0.01219539743990768 0  1.003741919047894 0.09354664821474232 0  0.9559421147150347 0.1035858189992458 0  0.9313792160389045 0.1037365237938103 0  0.9788461538460573 0.1033060829993555 0  0.9090102438250753 0.1037269304984056 0  0.8846304212778655 0.1043349840723655 0  0.8581503885465881 0.104741932962923 0  0.8286416220145676 0.1052762843984476 0  0.7982741772533339 0.1053575624517407 0  0.7708789559342691 0.1060290465840416 0  0.741870349714261 0.1078220590984258 0  0.7112469360040695 0.10685702926368 0  0.6783901541417233 0.1079959711853378 0  0.642884733623195 0.1075561996086514 0  0.6056235042367955 0.1085956039602543 0  0.5647007593786924 0.1083187281660325 0  1.1953125 0.01353164693413185 0  1.258148737344733 0.01268350115427042 0  1.320087046516829 0.01426312402966312 0  1.383495130751951 0.01432665475473204 0  1.4453125 0.01315663539200989 0  1.50886768312388 0.01395488397722681 0  0.9942307692307371 0.103330866937657 0  1.119309781943483 0.2802014914557878 0  1.572831235329714 0.01707210522554785 0  1.637611634353954 0.01209340368483431 0  1.709661292005932 0.0146870244871893 0  1.006561890631532 0.07068055446055937 0  1.784793444007901 0.01499371444634687 0  1.855459587353174 0.0
[...]
<PointData  Scalars="pressure"> 
<DataArray  type="Float64"  Name="pressure"  format="ascii">4.9606202786508166e-02  -3.1316389851727477e-01  -1.4376030860791866e-01  -1.0121895786997463e-01  9.5795261274605646e-04  0.0000000000000000e+00  0.0000000000000000e+00  4.9627418927750258e-02  4.3683484766150353e-02  3.7858991149850571e-02  3.2131014979741537e-02  2.6497909136382183e-02  2.0958008628421166e-02  1.5509762217165162e-02  1.0151570545107366e-02  4.8818288757266001e-03  -3.0089380358823295e-04  -5.3982784373747773e-03  -1.0411815932131873e-02  -1.5342908649378876e-02  -2.0193161210871703e-02  -2.4963986445410639e-02  -2.9656946675876927e-02  -3.4273442516537238e-02  -3.8815065569948411e-02  -4.3283148474715982e-02  -4.7679309489298466e-02  -5.2004860966993353e-02  -5.6261566052476925e-02  -6.0450723504706032e-02  -6.4573405528794217e-02  -6.8631919844921757e-02  -7.2627309238400106e-02  -7.6561338831974787e-02  -8.0435240148806333e-02  -8.4250743006139453e-02  -8.8009627879376703e-02  -9.1713119745637825e-02  -9.5363224032301949e-02  -9.8960661761837557e-02  -1.0250848100377359e-01  -1.0600759775975183e-01  -1.0945970003599641e-01  -1.1286652727332398e-01  -1.1623013898101395e-01  -1.1955200019221231e-01  -1.2283411029277484e-01  -1.2607819628909922e-01  -1.2928646875169869e-01  -1.3246056455491276e-01  -1.3560251849997856e-01  -1.3871409632854803e-01  -1.4179762352436248e-01  -1.4485480666851794e-01  -1.4788824762399325e-01  -1.5089951847025426e-01  -1.5389098944424742e-01  -1.5686506243673173e-01  -1.5982392181021945e-01  -1.6276884298147218e-01  -1.6570478067940542e-01  -1.6862989195994577e-01  -1.7154951437131505e-01  -1.7446556591857409e-01  -1.7737953503024911e-01  -1.8029661383374604e-01  -1.8321697311565061e-01  -1.8614042793910715e-01  -1.8907415506465486e-01  -1.9201999037457956e-01  -1.9498144481558538e-01  -1.9795874912763434e-01  -2.0095231685282577e-01  -2.0397247480522959e-01  -2.0701770405545977e-01  -2.1009237247356347e-01  -2.1319974600350447e-01  -2.1634307251929102e-01  -2.1952547191203658e-01  -2.2275244925703305e-01  -2.2602594826699246e-01  -2.2934997921625189e-01  -2.3273250112659885e-01  -2.3617771847789273e-01  -2.3968844130384148e-01  -2.4327352107729278e-01  -2.4694029176236398e-01  -2.5069339019862763e-01  -2.5453980468801690e-01  -2.5850076924995841e-01  -2.6257543245802734e-01  -2.6678077149443769e-01  -2.7112910365904641e-01  -2.7564793402148852e-01  -2.8035113759254410e-01  -2.8526365586123531e-01  -2.9043953983499182e-01  -2.9590473247611848e-01  -3.0170712240568404e-01  -3.0795406197069253e-01  -3.1474330237998493e-01  -3.2162608010273125e-01  -3.3383756305655787e-01  -3.5629256663921660e-01  -3.8629195042456566e-01  -3.9168165900788915e-01  -3.8321714918893773e-01  -3.6316740789202528e-01  -3.3595586173548964e-01  -3.0410336606923977e-01  -2.7046732402000928e-01  -2.3655804324656077e-01  -2.0398191907403582e-01  -1.7573806417670629e-01  -1.3959177350493726e-01  -1.5314801721515869e-01  -1.2679153586019085e-01  -1.1894511834678083e-01  -1.1284604378246976e-01  -1.0883986120540297e-01  -1.0591958703589723e-01  -1.0375699984356777e-01  -1.0225917772003092e-01  -1.0133678101989795e-01  -1.0094329403468975e-01  -1.0103903795844740e-01  -1.0142773195360602e-01  -1.0141633099894398e-01  -1.0090865446029278e-01  -1.0011845590296009e-01  -9.9284053772101200e-02  -9.8636218101857090e-02  -9.8338573997608147e-02  -9.8526545809207958e-02  -9.9262472044601924e-02  -1.0054815168764485e-01  -1.0236648437014347e-01  -1.0462156944493529e-01  -1.0716311232920242e-01  -1.0980752524362750e-01  -1.1232442153252958e-01  -1.1446265263323271e-01  -1.1591830348153627e-01  -1.1643669435984139e-01  -1.1577012925609106e-01  -1.1347946770152710e-01  -1.0978381933653052e-01  -1.0427612198171723e-01  -9.7118444314128666e-02  -8.8433024827195117e-02  -7.8384464120154179e-02  -6.7321598565060467e-02  -5.5510621263368913e-02  -4.3419486239056414e-02  -3.1398588566794547e-02  -1.9799801055623924e-02  -8.9361827385386547e-03  9.8490434498217112e-03  1.7472365674461365e-02  2.3770230084229096e-02  2.8648692732671458e-02  3.2236838138983384e-02  3.4564776554547795e-02  3.5730255034907982e-02  3.5898241350299474e-02  3.5122090744913785e-02  3.3637441019092787e-02  3.1624620962365728e-02  2.9251366692465509e-02  2.6675237565802264e-02  2.4093275164940420e-02  2.1660675598844280e-02  1.9547209220247021e-02  1.7890324573771241e-02  1.6872756897105320e-02  1.6455858251935473e-02  1.6787981182986234e-02  1.7829514322222507e-02  1.9508430962659210e-02  2.1733462780058027e-02  2.4356529248180814e-02  2.7199768406335315e-02  3.0110917335826489e-02  3.2848882858580238e-02  3.5311615984216393e-02  3.7340675762043127e-02  3.8826241913482287e-02  3.9723661302191966e-02  4.0018679945647048e-02  3.9733181567273158e-02  3.8915388844791815e-02  3.7619896696554182e-02  3.5949877184627145e-02  3.3994275146101836e-02  3.1868477468713602e-02  2.9669539448723966e-02  2.7509487842429573e-02  2.5488860569867738e-02  2.3700726924068258e-02  2.2219214028561966e-02  2.1100217964731004e-02  2.0368283575911618e-02  2.0020442970159282e-02  2.0020685309099551e-02  2.0296881270624952e-02  2.0751533464492267e-02  2.1272631687033791e-02  2.1763927189608286e-02  2.2079905189081463e-02  2.2163758614062931e-02  2.1935919821175053e-02  2.1343910810458104e-02  2.0374899356655311e-02  1.9093782968780029e-02  1.7471103532117973e-02  1.5632813491376751e-02  1.3626725082000257e-02  1.1543215589364527e-02  9.4261723160880065e-03  7.4126048598704116e-03  5.5173442478829481e-03  3.8279265442776452e-03  2.3596241201223203e-03  1.1147915027810648e-03  0.0000000000000000e+00  0.0000000000000000e+00  0.0000000000000000e+00  0.0000000000000000e+00  0.0000000000000000e+00  0.0000000000000000e+00  0.0000000000000000e+00  0.0000000000000000e+00  0.0000000000000000e+00  2.3477538474965427e-03  4.3320598109769090e-03  6.0327559491709344e-03  7.4100946549500758e-03  8.4924001447582130e-03  9.3452479678508161e-03  1.0048227563690015e-02  1.0701632539687199e-02  1.1413879415309551e-02  1.2290460166166146e-02  1.3419205890884188e-02  1.4860504924245453e-02  1.6635725721781694e-02  1.8727006240958095e-02  2.1074449072204238e-02  2.3578505615775836e-02  2.6118198897916632e-02  2.8534974426395215e-02  3.0676864862969205e-02  3.2381807722494382e-02  3.3504084087614343e-02  3.3924538032904558e-02  3.3566386418213981e-02  3.2416160733813280e-02  3.0533119154564626e-02  2.8065255642099489e-02  2.5232802944568221e-02  2.2306231499886670e-02  1.9610005473128661e-02  1.7426905792664649e-02  1.6001468578145512e-02  1.5437875329463620e-02  1.5828399926729068e-02  1.6938435034909376e-02  1.8808197309092216e-02  2.1011787034097833e-02  2.3371131654160528e-02  2.5498344202457821e-02  2.7085764328160431e-02  2.7970058751994192e-02  2.7724332539351800e-02  2.6218285097775317e-02  2.3289816741471035e-02  1.8838862047067934e-02  1.2870682165466279e-02  5.5390444541685152e-03  -2.8710128290753089e-03  -1.1954451692354991e-02  -2.1265419923464406e-02  -3.0257979747786139e-02  -3.8448326791901619e-02  -4.5470613204930850e-02  -5.1179959372914835e-02  -5.5632266378560655e-02  -5.8838407681417224e-02  -6.1133338410921140e-02  -6.2806642949121569e-02  -6.4179064743149702e-02  -6.5512990249871741e-02  -6.7073409615913820e-02  -6.9051031638481697e-02  -7.1655437395510141e-02  -7.4905889693149943e-02  -7.8997969735665599e-02  -8.3958201816823660e-02  -8.9803580000185956e-02  -9.6483895169898345e-02  -1.0389305023985870e-01  -1.1188424639877041e-01  -1.2029693855635799e-01  -1.2882923800977453e-01  -1.3748313087568237e-01  -1.4589927864946900e-01  -1.5391539577217811e-01  -1.6113330772646778e-01  -1.6768360102845817e-01  -1.7299003645866542e-01  -1.7722394461437210e-01  -1.8038324030933245e-01  -1.8183621264799116e-01  -1.8208565112667371e-01  -1.8113355407975387e-01  -1.7926191956636653e-01  -1.7649774065766180e-01  -1.7295022064067045e-01  -1.6876691199723157e-01  -1.6413858721737706e-01  -1.5911734723478740e-01  -1.5374563216066914e-01  -1.4815580314550594e-01  -1.4235734846633902e-01  -1.3641951879546341e-01  -1.3036648910648216e-01  -1.2422064280313858e-01  -1.1800590394006798e-01  -1.1174994388158709e-01  -1.0545656560293692e-01  -9.9139786364828092e-02  -9.2809054275699396e-02  -8.6474205894452510e-02  -8.0139219476872761e-02  -7.3805301788109581e-02  -6.7479690215431515e-02  -6.1163423019096962e-02  -5.4859923718443469e-02  -4.8569570211167361e-02  -4.2294151088024257e-02  -3.6035852264885433e-02  -2.9793704028950267e-02  -2.3570089411309475e-02  -1.7364340104990973e-02  -1.1177270770984498e-02  -5.0093863614931828e-03  1.1395480162610418e-03  7.2690392489701220e-03  1.3379066466667488e-02  1.9469545192697769e-02  2.5540420743518564e-02  3.1591673050761160e-02  3.7623274427639020e-02  4.3635195627829956e-02  4.9627358162433917e-02  4.9626477210886831e-02  4.9624294571792411e-02  4.9620918296666525e-02  4.9616816086277202e-02  4.9612720449940313e-02  4.9609331540970428e-02  4.9607165691941991e-02  4.9606280606378561e-02  -9.8639877294850214e-02  -1.2920795799218315e-01  -3.7853663147266237e-01  -3.0587491344322959e-01  -2.7704218846768802e-01  -2.7853559780775283e-01  -2.5686905630356516e-01  -2.3817786769769475e-01  -2.2093945953380986e-01  -2.0573302203252880e-01  -1.9354078116709889e-01  -1.8174115104256416e-01  -1.7014822159582507e-01  -1.5845160585577969e-01  -1.4639974185892835e-01  -1.3421647699376657e-01  -1.2119950882608900e-01  -1.0532768446587633e-01  -1.1475834139792242e-01  -1.1177545874039152e-01  -8.3650422001043584e-02  -3.8299221928025678e-02  5.1175037888614222e-03  -1.5328643709389253e-01  -1.2437027232681518e-01  2.9991694264986074e-02  3.5437601205511982e-02  2.8039644314963540e-02  -1.0787688589498556e-01  1.8489401759806203e-02  1.6935975424856402e-02  -1.0785059064416364e-01  2.5395108609895516e-02  -9.2505775214522551e-02  -7.2267068525638981e-02  3.6445089857555728e-02  -6.4137267733151745e-02  -9.3331313428959506e-02  -5.3936498159009486e-02  3.9897183223453585e-02  -7.9167523676773779e-02  -9.8668999912211189e-02  3.5093349124328495e-02  -1.6900642144378922e-02  -1.4896808819669427e-01  -6.2975739670578804e-02  2.6577326731762170e-02  2.4930147833433093e-02  -4.5185719735996527e-02  2.7838323198226312e-02  2.0656414106442676e-02  2.2227397175668170e-02  -1.7408150151744492e-01  2.0427613826070307e-02  -2.7311148704983919e-02  1.6302467426429875e-02  -1.8159793067958463e-01  -1.7748913804619840e-01  1.6397058402204377e-02  2.2055410453573770e-02  -7.4077472300372905e-03  7.3988980672458808e-03  9.0735433195240859e-03  2.0897594492944708e-02  1.6421324115291496e-02  -1.6183770633700059e-01  2.3510801849090726e-02  3.2983048145430294e-02  -1.4502030909049612e-01  -3.2693710868179632e-01  -3.6751473912279331e-01  -1.2745096610865175e-01  3.2996822253409427e-02  1.0603658867516352e-02  -1.0315470713778471e-01  2.4903118491469572e-02  -7.0815762627718534e-02  1.7635060185790138e-02  -3.9164254667295777e-02  1.2715679082394212e-02  -2.0568530721693172e-02  1.6293817586162402e-02  -1.7895675534241096e-03  1.0237525660157202e-02  4.4572983204000251e-02  1.7419275573328189e-03  2.3917533982558213e-02  -1.0218520423649813e-01  7.9934301719282973e-03  4.5020560205699415e-03  -1.1493150855299536e-01  -1.0028742553495107e-01  -1.6308005162744019e-01  -1.0761886737795269e-01  -1.7091535624143439e-01  -1.1483057512390786e-01  -8.9944122816204425e-02  -5.7274218739419631e-02  -4.2187256697851179e-02  -6.1438433498496925e-02  -6.7052413384629417e-02  -8.0699652346540543e-02  -1.7768529462703683e-02  -3.6463870015219127e-02  2.9065299831778888e-02  2.9701374719889689e-02  -5.3669033855311604e-02  2.1354997121056384e-02  2.8469409102418766e-02  1.9892761219539545e-02  2.2963964177584891e-02  -7.0938432688592568e-02  3.0888338830499767e-02  4.4545272361585835e-02  3.8373621945292376e-02  -8.6033783323680640e-02  3.9021526501045005e-02  3.1478489737889838e-02  1.9986589844423315e-02  2.0055471972632886e-02  -1.0087732097127901e-01  1.6467202944041599e-02  2.2893592980678019e-02  3.2711716474100712e-02  -1.1467337494834794e-01  3.4928870413681791e-02  7.8443729767097112e-04  -1.2769699431226353e-01  -1.4032034657785444e-01  -1.5268643557816738e-01  -1.6394793168334032e-01  -1.7618279228399944e-01  -1.8770849894633249e-01  -1.9986792825859565e-01  -2.1491935781512556e-01  -1.0112912429590265e-01  -2.3124490674248646e-01  -2.4923227534991588e-01  -2.6941322499439402e-01  -1.1049602853249535e-01  -2.9306249628114711e-01  -1.0133732803457936e-01  -1.1569709053173322e-01  -6.3974828295723554e-02  -1.5239449590914758e-02  4.4963023210771419e-02  -2.0925191031950174e-01  2.2906368200084170e-03  3.4956321494735244e-02  5.2004801126393496e-03  -1.0121265921412817e-01  7.3555436496130805e-04  4.5103844926252315e-02  -1.0089942266334304e-01  -1.0055091318409907e-01  -9.9849455347572710e-02  -1.0027922922771812e-01  -9.9450861911997021e-02  -9.9956345328357996e-02  -9.8863712111865149e-02  -9.9385071394746602e-02  -9.7949494890147606e-02  -9.8277369106087489e-02  -9.6510568376044409e-02  -9.6508751746869390e-02  -9.4489381466388259e-02  -9.4329466199846793e-02  -9.2221050623904274e-02  -9.2385502253452156e-02  -9.0377477653336119e-02  -9.1430338096851166e-02  -8.9995623546196030e-02  -9.2735428080838359e-02  -9.1566684146168698e-02  -9.4918315451672536e-02  -8.8998478337421028e-02  -9.1213173278712076e-02  -9.7661987175621773e-02  -1.0073432007660149e-01  -8.9558600661301210e-02  -9.2116866847928525e-02  -9.1028936953563150e-02  -9.4061005649215310e-02  -9.3819266590863426e-02  -9.6896515552911747e-02  -9.7741457335507237e-02  -1.0035299429172824e-01  -1.0244103562928983e-01  -1.0422045624612503e-01  -1.0761964482458411e-01  -1.0858005189883355e-01  -1.1267872840269241e-01  -1.1195952261593972e-01  -1.1692951394677246e-01  -1.1351032262778425e-01  -1.1960294217527025e-01  -1.1474893477235443e-01  -1.2029436539536685e-01  -1.1339274507374111e-01  -1.1848950480464697e-01  -1.0966485700824881e-01  -1.1393516057258411e-01  -1.0382267820264451e-01  -1.0633174610378267e-01  -1.0467913217815422e-01  -1.0928003355585054e-01  -9.6125293015437346e-02  -9.7108095171742626e-02  -8.7185672311166210e-02  -8.5146522319135109e-02  -7.7162530717756597e-02  -7.3458342819780517e-02  -6.6914873992302157e-02  -6.0937816698912635e-02  -5.7035226431750984e-02  -4.8741538865296030e-02  -9.5205470061862099e-02  -4.7880645268129345e-02  -3.7391206342191882e-02  -3.9669058024033997e-02  -2.7396684995302442e-02  -3.2686310672338750e-02  -1.8916390841579696e-02  -1.1334213993880375e-01  -1.1927720644563687e-01  -9.6879454216963340e-02  -2.6646600843902819e-02  -1.1869447223488112e-02  -1.0656823164446340e-01  -2.1086188937080138e-02  -6.1185492638383505e-03  -1.6597598745148007e-02  -1.5834024425828664e-03  -1.2326269535710607e-02  2.0493976064385288e-03  -9.9133870969813687e-02  -9.0695411122808309e-03  4.8470054284011710e-03  -4.7855722462972995e-03  7.3502739539468556e-03  -9.4429252773991677e-04  9.3929311216572730e-03  -9.2641798757897992e-02  -1.0712186319809638e-01  2.8593752465826093e-03  1.1224078601869893e-02  -1.2296738273567097e-01  -1.3030789016290195e-01  -1.1729015166466082e-01  -1.0638624211381062e-01  6.1106889257593385e-03  1.2947565387289620e-02  9.8213638292633972e-03  1.4547507301438684e-02  1.3354081053137170e-02  1.5997619200044385e-02  -4.8177445236103943e-03  1.7968879262611686e-02  1.2441037272652023e-02  -3.8435019115644620e-02  1.6591282616409166e-02  1.7493829023484727e-02  1.6850759286509663e-02  1.6883555786943474e-02  1.8929333440682587e-02  1.7227491980750752e-02  2.0305033293404141e-02  1.7902529648228707e-02  2.1598889130779786e-02  1.8970482416666615e-02  2.2776784778441039e-02  2.0217582133927249e-02  2.3710673254186507e-02  2.1589338260991908e-02  2.4429047564731864e-02  2.2931570361266626e-02  2.4753168135294379e-02  2.4074112120079223e-02  2.4709623881030318e-02  2.5046480647458885e-02  2.4379578085814840e-02  2.5697387933839227e-02  2.3633691499694957e-02  2.6008535657489791e-02  -8.0540168977112289e-02  -9.2454273204797807e-02  2.2755647006809786e-02  2.6043740881241954e-02  2.1955256074991266e-02  2.5866507560218317e-02  -9.5259914244847019e-02  2.1244452206765893e-02  2.5678817991933139e-02  -1.2359334437064851e-01  -1.1629224256239402e-01  -1.3291084681474941e-01  -1.4231236743521924e-01  -1.4204094331897110e-01  -1.5215902308641863e-01  -1.5526618210092977e-01  -1.6477082277904584e-01  -1.7045658589648902e-01  -1.7865743296137959e-01  -1.8792880971167980e-01  -1.9262366708859305e-01  -2.0560815735214635e-01  -2.0579427635812489e-01  -2.2205732258860866e-01  -2.1811347788638946e-01  -2.3843735563893323e-01  -2.2946267063749001e-01  -2.4548593873301783e-01  -2.3429481855656589e-01  -2.4992310666045353e-01  -2.3999628821417349e-01  -2.5174443538307983e-01  -2.4126714938249005e-01  -2.5085570896093784e-01  -2.4055272045013304e-01  -2.4818887527454717e-01  -2.3847846040587117e-01  -2.4449532917622624e-01  -2.3547345027459840e-01  -2.3042731308484896e-01  -2.2907075665110879e-01  -2.2663973269460219e-01  -2.3183915020487936e-01  -2.2370746209119077e-01  -2.2778734046566212e-01  -2.2034265417200688e-01  -2.2364047694142722e-01  -2.1673567421524695e-01  -2.1613526374211037e-01  -2.2027410580363568e-01  -2.1300136948261505e-01  -2.1485405992794382e-01  -2.0885045581244166e-01  -2.0651844472343162e-01  -2.0290333329098589e-01  -2.0468472181527347e-01  -1.9919402760058125e-01  -2.0030864647069713e-01  -1.9533006784518431e-01  -1.5841019002091297e-01  -1.9596812080864967e-01  -1.9137985011513695e-01  -1.9018386598202888e-01  -1.8656457911833046e-01  -1.8745387997322252e-01  -1.8286555729969139e-01  -1.8349005827051967e-01  -1.7910656445980239e-01  -2.4108231513823961e-01  -2.1535150919724763e-01  -2.0019123010149020e-01  -2.6064647552042713e-01  -1.7954284008911095e-01  -1.7527855125241040e-01  -1.7474443952872626e-01  -1.7103237971344751e-01  -1.7137519817216768e-01  -1.6727380882015416e-01  -1.6739597693606770e-01  -1.6342655087700916e-01  -1.6322778369037000e-01  -1.5951243576926752e-01  -1.5947553177732826e-01  -1.5569019121921179e-01  -2.0041072689326128e-01  -1.5547124091415632e-01  -1.5184057660247494e-01  -2.6193341616998789e-01  -1.8121958091552856e-01  -1.8524533915853983e-01  -2.5369130119657757e-01  -1.5150639357434570e-01  -1.4785025611742927e-01  -1.4840987751145396e-01  -1.4422804745930137e-01  -1.4391773268746910e-01  -1.4018756457668968e-01  -1.4049350540309447e-01  -1.3649408964128940e-01  -1.3612350067913773e-01  -1.3247415978109051e-01  -2.3061735150077417e-01  -1.3205079459708313e-01  -1.2836534153659787e-01  -1.5910432061386834e-01  -2.0445951298240217e-01  -7.0501740035020702e-02  -2.2045901943986476e-01  -1.2880606726373789e-01  -1.2470365242496426e-01  -1.2422893286635683e-01  -1.2058826739303641e-01  2.0644957541660520e-02  2.5397110195524552e-02  2.0488870666740377e-02  2.5328023378082019e-02  2.0847145806204916e-02  2.5417389815900689e-02  -1.1991768308827440e-01  -1.1634338987463626e-01  -3.9723899542976129e-02  -1.1690375795740823e-01  -1.1270026324534395e-01  -1.1224130233528597e-01  -1.0851181296249297e-01  -1.0070619211866014e-01  -1.5299026545637984e-01  -1.8790046149925138e-01  1.8299517981581370e-02  2.1662410426223685e-02  2.5724631113322790e-02  1.6593668566155590e-02  2.8187630824884270e-02  2.9716249733385779e-02  2.9195700515324267e-02  2.6189297962481140e-02  2.8710099401127672e-02  2.6796407854151761e-02  2.8227464518794654e-02  2.7414746825680885e-02  2.7756267034542717e-02  2.7989902151384270e-02  2.7307818054794732e-02  2.8456055419916533e-02  2.6888034643695512e-02  2.8799706720515895e-02  2.6498492604162337e-02  2.8939630677791012e-02  2.6134155726040536e-02  2.8814084062061790e-02  2.5763366080071015e-02  2.8402493515302742e-02  2.5370077120637689e-02  2.7807495573562484e-02  2.4941969442085283e-02  2.6982351124353248e-02  2.4423908371918598e-02  -1.0801989626359532e-01  -1.0428428054501493e-01  -1.0452162112336527e-01  -1.0043444088323179e-01 