<?xml version="1.0"?>
<VTKFile type="UnstructuredGrid"  version="0.1"  >
<UnstructuredGrid>
<Piece  NumberOfPoints="2945" NumberOfCells="5525">
<Points>
<DataArray  type="Float64"  NumberOfComponents="3"  format="ascii">0 0.1 0  0.95 0.1 0  1 0.1 0  1 0 0  1.5 0 0  3 0 0  3 0.3 0  0 0.3 0  0.0197424558707114 0.1 0  0.03915669042224804 0.1 0  0.05824816022699029 0.1 0  0.07702223050332387 0.1 0  0.09548417327144595 0.1 0  0.1136391897583987 0.1 0  0.1314923700144587 0.1 0  0.1490487330862866 0.1 0  0.1663132263225292 0.1 0  0.1832906857273058 0.1 0  0.1999858946008978 0.1 0  0.216403545770297 0.1 0  0.2325482404045023 0.1 0  0.2484245348165176 0.1 0  0.2640368740372501 0.1 0  0.2793896589642241 0.1 0  0.2944872056237027 0.1 0  0.3093337469555254 0.1 0  0.3239334613687816 0.1 0  0.3382904528528069 0.1 0  0.3524087553122972 0.1 0  0.3662923366391824 0.1 0  0.3799451014768399 0.1 0  0.393370886920506 0.1 0  0.4065734648871676 0.1 0  0.419556546320114 0.1 0  0.4323237821343415 0.1 0  0.4448787573056132 0.1 0  0.4572250047274954 0.1 0  0.4693659926332938 0.1 0  0.4813051343276231 0.1 0  0.4930457849308193 0.1 0  0.5045912455271677 0.1 0  0.5159447600209797 0.1 0  0.5271095174127136 0.1 0  0.5380886618453393 0.1 0  0.5488852725463512 0.1 0  0.5595023868312478 0.1 0  0.5699429904313016 0.1 0  0.5802100167387366 0.1 0  0.5903063508274641 0.1 0  0.6002348329443006 0.1 0  0.6099982499579832 0.1 0  0.6195993483501782 0.1 0  0.6290408246013842 0.1 0  0.6383253354321616 0.1 0  0.6474554910757137 0.1 0  0.6564338522440513 0.1 0  0.6652629482939147 0.1 0  0.6739452579188948 0.1 0  0.6824832240165607 0.1 0  0.6908792415022103 0.1 0  0.6991356755989045 0.1 0  0.7072548438546967 0.1 0  0.7152390281534421 0.1 0  0.7230904746196039 0.1 0  0.7308113906759266 0.1 0  0.7384039435269326 0.1 0  0.7458702676581656 0.1 0  0.7532124631720397 0.1 0  0.7604325921167397 0.1 0  0.7675326856666862 0.1 0  0.7745147374421916 0.1 0  0.7813807123989068 0.1 0  0.7881325374362798 0.1 0  0.7947721131625659 0.1 0  0.8013013031866276 0.1 0  0.8077219449067021 0.1 0  0.8140358419942376 0.1 0  0.8202447685401882 0.1 0  0.8263504700910924 0.1 0  0.8323546643163114 0.1 0  0.8382590362474568 0.1 0  0.8440652473522128 0.1 0  0.8497749272799842 0.1 0  0.8553896837646281 0.1 0  0.8609110933285474 0.1 0  0.866340708855119 0.1 0  0.8716800550492284 0.1 0  0.8769306339052932 0.1 0  0.8820939206038667 0.1 0  0.8871713655604893 0.1 0  0.8921643975475726 0.1 0  0.8970744196575535 0.1 0  0.9019028106970642 0.1 0  0.9066509291259979 0.1 0  0.9113201098984042 0.1 0  0.9159116634553873 0.1 0  0.9204268818729691 0.1 0  0.9248670319440222 0.1 0  0.9292333656649013 0.1 0  0.9335271075812669 0.1 0  0.9377494640511216 0.1 0  0.941901623463222 0.1 0  0.9459847526686701 0.1 0  0.9538461538461205 0.1 0  0.9576923076922409 0.1 0  0.9615384615384381 0.1 0  0.9653846153846337 0.1 0  0.9692307692307542 0.1 0  0.9730769230768747 0.1 0  0.9769230769229952 0.1 0  0.9807692307691157 0.1 0  0.9846153846152361 0.1 0  0.9884615384614317 0.1 0  0.9923076923076356 0.1 0  0.9961538461538395 0.1 0  1 0.09591793123533533 0  1 0.09133596463859224 0  1 0.08619288104391448 0  1 0.08041996484521211 0  1 0.07394008421771697 0  1 0.06666666567302955 0  1 0.05850252932209174 0  1 0.04933859630113544 0  1 0.03905242821848202 0  1 0.02750659386753798 0  1 0.01454683679239736 0  1.015625 0 0  1.03125 0 0  1.046875 0 0  1.0625 0 0  1.078125 0 0  1.09375 0 0  1.109375 0 0  1.125 0 0  1.140625 0 0  1.15625 0 0  1.171875 0 0  1.1875 0 0  1.203125 0 0  1.21875 0 0  1.234375 0 0  1.25 0 0  1.265625 0 0  1.28125 0 0  1.296875 0 0  1.3125 0 0  1.328125 0 0  1.34375 0 0  1.359375 0 0  1.375 0 0  1.390625 0 0  1.40625 0 0  1.421875 0 0  1.4375 0 0  1.453125 0 0  1.46875 0 0  1.484375 0 0  1.515920751924515 0 0  1.531989369316721 0 0  1.54820720925872 0 0  1.564575665560501 0 0  1.581096138674279 0 0  1.597770029901263 0 0  1.614598783332311 0 0  1.631583831055205 0 0  1.64872661129721 0 0  1.666028606716533 0 0  1.683491276608443 0 0  1.701116134125304 0 0  1.718904673324128 0 0  1.736858414799339 0 0  1.754978895814663 0 0  1.773267661782904 0 0  1.791726281103402 0 0  1.810356325314689 0 0  1.8291593848892 0 0  1.848137076690385 0 0  1.867291007717254 0 0  1.886622833871288 0 0  1.90613418642363 0 0  1.925826753299799 0 0  1.945702199101513 0 0  1.96576223584749 0 0  1.986008569283268 0 0  2.006442931928877 0 0  2.02706707547783 0 0  2.047882750887917 0 0  2.06889175187935 0 0  2.090095860038271 0 0  2.111496891648636 0 0  2.133096679109554 0 0  2.154897066851056 0 0  2.176899916687499 0 0  2.199107102752146 0 0  2.22152053937028 0 0  2.244142122958061 0 0  2.266973806444078 0 0  2.290017523268154 0 0  2.313275249499252 0 0  2.336748971745516 0 0  2.360440702338606 0 0  2.384352453384031 0 0  2.408486280477412 0 0  2.432844240041185 0 0  2.457428414757088 0 0  2.482240901796653 0 0  2.507283830121838 0 0  2.532559332080812 0 0  2.558069568787417 0 0  2.583816724966441 0 0  2.60980299606584 0 0  2.636030600971886 0 0  2.662501790984011 0 0  2.689218818279327 0 0  2.716183964547616 0 0  2.743399548861297 0 0  2.77086788244719 0 0  2.798591312896326 0 0  2.826572223178268 0 0  2.854812990138617 0 0  2.883316031690714 0 0  2.912083780657189 0 0  2.941118704633482 0 0  2.970423276998917 0 0  3 0.02999999999994495 0  3 0.05999999999987042 0  3 0.089999999999783 0  3 0.119999999999701 0  3 0.149999999999619 0  3 0.179999999999692 0  3 0.2099999999997737 0  3 0.2399999999998511 0  3 0.2699999999999185 0  2.970138294777171 0.3 0  2.940375666438236 0.3 0  2.910711782853056 0.3 0  2.881146331305122 0.3 0  2.851678975030285 0.3 0  2.822309388626621 0.3 0  2.793037250095074 0.3 0  2.76386223529133 0.3 0  2.734784017903872 0.3 0  2.705802289276642 0.3 0  2.676916713794697 0.3 0  2.648126987654635 0.3 0  2.619432780406184 0.3 0  2.590833779385199 0.3 0  2.562329669847737 0.3 0  2.533920134950189 0.3 0  2.505604855727852 0.3 0  2.477383539822502 0.3 0  2.449255847639465 0.3 0  2.421221492569094 0.3 0  2.393280152486815 0.3 0  2.36543151914496 0.3 0  2.337675285481809 0.3 0  2.310011142385583 0.3 0  2.282438797441587 0.3 0  2.254957931061538 0.3 0  2.227568248063605 0.3 0  2.200269436651085 0.3 0  2.173061204949961 0.3 0  2.145943251515011 0.3 0  2.118915272469994 0.3 0  2.091976978084957 0.3 0  2.065128060700849 0.3 0  2.038368218849433 0.3 0  2.01169717777258 0.3 0  1.985114624111908 0.3 0  1.958620267850966 0.3 0  1.93221382054972 0.3 0  1.905894991850698 0.3 0  1.879663489459713 0.3 0  1.853519019126419 0.3 0  1.827461291053897 0.3 0  1.801490031354372 0.3 0  1.775604937580312 0.3 0  1.74980572560258 0.3 0  1.724092118631866 0.3 0  1.698463829173586 0.3 0  1.672920575782554 0.3 0  1.647462076974085 0.3 0  1.622088043536933 0.3 0  1.5967981978949 0.3 0  1.571592267767068 0.3 0  1.546469970305736 0.3 0  1.521431023814044 0.3 0  1.496475156230927 0.3 0  1.471602093687753 0.3 0  1.446811560490646 0.3 0  1.422103279101731 0.3 0  1.397476971708191 0.3 0  1.37293238939876 0.3 0  1.348469231419202 0.3 0  1.324087248732772 0.3 0  1.299786165921677 0.3 0  1.275565710847046 0.3 0  1.251425617644257 0.3 0  1.227365618676339 0.3 0  1.203385446174014 0.3 0  1.179484853067473 0.3 0  1.155663548773374 0.3 0  1.131921292279077 0.3 0  1.108257802159295 0.3 0  1.084672829009693 0.3 0  1.061166115303374 0.3 0  1.037737392995421 0.3 0  1.01438640299116 0.3 0  0.991112899770314 0.3 0  0.9679166155523955 0.3 0  0.944797284182564 0.3 0  0.921754678526042 0.3 0  0.8987885143602501 0.3 0  0.8758985548820624 0.3 0  0.8530845484099929 0.3 0  0.8303462351786988 0.3 0  0.8076833651172373 0.3 0  0.7850956864865304 0.3 0  0.7625829601354557 0.3 0  0.7401449314598274 0.3 0  0.717781337993959 0.3 0  0.6954919649675473 0.3 0  0.6732765357561226 0.3 0  0.6511348120768439 0.3 0  0.6290665642016573 0.3 0  0.6070715355430467 0.3 0  0.5851494825775325 0.3 0  0.5633001690203812 0.3 0  0.5415233562273221 0.3 0  0.5198187909431873 0.3 0  0.4981862401387795 0.3 0  0.4766254686134248 0.3 0  0.4551362360485234 0.3 0  0.4337182975262159 0.3 0  0.4123714223228037 0.3 0  0.3910953802377493 0.3 0  0.3698899313205595 0.3 0  0.3487548463710963 0.3 0  0.3276898864081783 0.3 0  0.3066948129116018 0.3 0  0.2857694003037476 0.3 0  0.2649134227095047 0.3 0  0.2441266417321288 0.3 0  0.2234088223399122 0.3 0  0.2027597568977288 0.3 0  0.1821792020676698 0.3 0  0.1616669305402443 0.3 0  0.1412227158799362 0.3 0  0.12084633013886 0.3 0  0.1005375673448281 0.3 0  0.08029618164595353 0.3 0  0.06012194778526769 0.3 0  0.04001466495039718 0.3 0  0.01997408913631205 0.3 0  0 0.2800000000000553 0  0 0.2600000000001105 0  0 0.2400000000001658 0  0 0.2200000000002211 0  0 0.2000000000002764 0  0 0.1800000000002244 0  0 0.1600000000001691 0  0 0.140000000000115 0  0 0.1200000000000564 0  1.133778471000506 0.01219539743990768 0  1.003741919047894 0.09354664821474232 0  0.9559421147150347 0.1035858189992458 0  0.9313792160389045 0.1037365237938103 0  0.9788461538460573 0.1033060829993555 0  0.9090102438250753 0.1037269304984056 0  0.8846304212778655 0.1043349840723655 0  0.8581503885465881 0.104741932962923 0  0.8286416220145676 0.1052762843984476 0  0.7982741772533339 0.1053575624517407 0  0.7708789559342691 0.1060290465840416 0  0.741870349714261 0.1078220590984258 0  0.7112469360040695 0.10685702926368 0  0.6783901541417233 0.1079959711853378 0  0.642884733623195 0.1075561996086514 0  0.6056235042367955 0.1085956039602543 0  0.5647007593786924 0.1083187281660325 0  1.1953125 0.01353164693413185 0  1.258148737344733 0.01268350115427042 0  1.320087046516829 0.01426312402966312 0  1.383495130751951 0.01432665475473204 0  1.4453125 0.01315663539200989 0  1.50886768312388 0.01395488397722681 0  0.9942307692307371 0.103330866937657 0  1.119309781943483 0.2802014914557878 0  1.572831235329714 0.01707210522554785 0  1.637611634353954 0.01209340368483431 0  1.709661292005932 0.0146870244871893 0  1.006561890631532 0.07068055446055937 0  1.784793444007901 0.01499371444634687 0  1.855459587353174 0.0
[...]
<PointData  Scalars="pressure"> 
<DataArray  type="Float64"  Name="pressure"  format="ascii">6.1966536908076444e+00  6.5303890831929134e+00  5.4670009386280691e+00  5.3774762647620253e+00  4.2912611982330722e+00  0.0000000000000000e+00  0.0000000000000000e+00  6.1966615938868044e+00  6.1907309643894513e+00  6.1849066177128122e+00  6.1791789872208307e+00  6.1735464520863363e+00  6.1680074041420667e+00  6.1625602917539526e+00  6.1572035581776783e+00  6.1519356792755637e+00  6.1467551833441636e+00  6.1416605335806169e+00  6.1366503107831969e+00  6.1317230971995516e+00  6.1268774464177369e+00  6.1221119856818147e+00  6.1174253174188253e+00  6.1128161090860686e+00  6.1082829935060694e+00  6.1038247029410746e+00  6.0994398965139265e+00  6.0951273635761840e+00  6.0908857523943585e+00  6.0867140152392070e+00  6.0826109222587492e+00  6.0785750843883237e+00  6.0746055480746488e+00  6.0707011752182467e+00  6.0668612204082475e+00  6.0630835243615140e+00  6.0593687972948738e+00  6.0557144195382504e+00  6.0521213999398364e+00  6.0485870265705000e+00  6.0451113441761883e+00  6.0416937607389549e+00  6.0383345150194838e+00  6.0350319762733839e+00  6.0317858958239077e+00  6.0285967407021950e+00  6.0254631626310768e+00  6.0223869507562338e+00  6.0193671663705963e+00  6.0164039372267659e+00  6.0135006105737281e+00  6.0106554331393998e+00  6.0078684079375755e+00  6.0051445889903565e+00  6.0024834069161850e+00  5.9998871032010417e+00  5.9973610524764043e+00  5.9948963968870999e+00  5.9925233233824056e+00  5.9901975325484829e+00  5.9879806897239680e+00  5.9858433740442711e+00  5.9837962667663760e+00  5.9818428985660619e+00  5.9799971575741138e+00  5.9782474863073416e+00  5.9766707351679758e+00  5.9751866022577191e+00  5.9738038077020450e+00  5.9726116858028764e+00  5.9715786320307700e+00  5.9707666818574445e+00  5.9700754143851320e+00  5.9696018030895965e+00  5.9693592317713255e+00  5.9693813435939562e+00  5.9696756853559965e+00  5.9702364693515104e+00  5.9711174999691270e+00  5.9723678112717460e+00  5.9740617783760728e+00  5.9761392456380316e+00  5.9786518026887405e+00  5.9817576744029619e+00  5.9853956024560135e+00  5.9896772345286911e+00  5.9948258534550458e+00  6.0007899087629122e+00  6.0075832336858550e+00  6.0154703566216732e+00  6.0246992147565903e+00  6.0353342065955546e+00  6.0476448744039670e+00  6.0621296550328072e+00  6.0790214817316599e+00  6.0991221375912321e+00  6.1217465962392632e+00  6.1574714114174958e+00  6.1715797819014862e+00  6.2985776012361061e+00  6.2834058567762137e+00  6.3557039844155714e+00  6.4452190191201559e+00  6.5975164326245146e+00  6.6410026464595440e+00  6.6555550847559113e+00  6.6370912025992634e+00  6.5848569111458808e+00  6.4990497606502995e+00  6.3812309610927880e+00  6.2356557689656329e+00  6.0690996611896137e+00  5.8930485931731491e+00  5.7214784629970836e+00  5.6469036456625554e+00  5.2910614602024992e+00  5.5033923345185007e+00  5.4766860922192508e+00  5.4705242533871354e+00  5.4572167835409235e+00  5.4421470115530663e+00  5.4273755554154901e+00  5.4131113388684788e+00  5.3997252720953055e+00  5.3883835866789633e+00  5.3802557842258230e+00  5.3736190906408208e+00  5.3627699744679269e+00  5.3463704409311354e+00  5.3250352535372212e+00  5.2989247538048279e+00  5.2703150951653663e+00  5.2408449052815120e+00  5.2089750871682119e+00  5.1749257103040680e+00  5.1395581951572531e+00  5.1025654833177452e+00  5.0639261583475079e+00  5.0243194999673024e+00  4.9836494935762161e+00  4.9422352902014008e+00  4.9006011950332278e+00  4.8591523660954916e+00  4.8176578348613726e+00  4.7766912188364117e+00  4.7384876599058465e+00  4.6977087034663256e+00  4.6610269492815641e+00  4.6229493686644076e+00  4.5858815816985317e+00  4.5481723058405095e+00  4.5149169147605024e+00  4.4772752091545671e+00  4.4413174829804491e+00  4.4045538682893808e+00  4.3675143043415261e+00  4.3297319893345927e+00  4.2513381047330956e+00  4.2106163582768446e+00  4.1689564404002049e+00  4.1267897941232041e+00  4.0816618893372913e+00  4.0369572959058138e+00  3.9903158578670781e+00  3.9476159598503009e+00  3.9014894680349874e+00  3.8540837007957469e+00  3.8063262127982473e+00  3.7584490023744732e+00  3.7097940198813415e+00  3.6606352812613818e+00  3.6105553731477249e+00  3.5598520938736540e+00  3.5082502289352764e+00  3.4586355453253073e+00  3.4040618908805316e+00  3.3530016314285271e+00  3.2987269444776630e+00  3.2435425381244518e+00  3.1884638918777681e+00  3.1319647558113224e+00  3.0756851398081486e+00  3.0156789494478029e+00  2.9581946052866610e+00  2.8991989465453747e+00  2.8398353102277119e+00  2.7824594719869737e+00  2.7219031401016225e+00  2.6600086625871775e+00  2.5976779681905455e+00  2.5356944307835909e+00  2.4724452762261788e+00  2.4088464777100018e+00  2.3441754191389741e+00  2.2792393854545701e+00  2.2135154716550720e+00  2.1470517312865076e+00  2.0799067192337839e+00  2.0123189763096292e+00  1.9439619175671718e+00  1.8748982714468045e+00  1.8047947981027268e+00  1.7347160324119522e+00  1.6640236783917455e+00  1.5918538212568090e+00  1.5188509432794712e+00  1.4487960866014107e+00  1.3719145395494854e+00  1.3003207352505051e+00  1.2224744393521991e+00  1.1456499704001852e+00  1.0722600681642336e+00  9.9132961069891290e-01  9.1587170761339010e-01  8.3532332576893975e-01  7.5451469903091284e-01  6.7278317943226018e-01  5.9573190679317645e-01  5.1013432181321738e-01  4.2831848244495679e-01  3.4556526161348555e-01  2.5643420957823770e-01  1.7567748627436799e-01  8.6397687584488680e-02  0.0000000000000000e+00  0.0000000000000000e+00  0.0000000000000000e+00  0.0000000000000000e+00  0.0000000000000000e+00  0.0000000000000000e+00  0.0000000000000000e+00  0.0000000000000000e+00  0.0000000000000000e+00  8.6026453556920943e-02  1.7372161239327855e-01  2.6471343252036933e-01  3.5131042564371096e-01  4.3784324005659897e-01  5.2394647795608473e-01  6.1013889507675334e-01  6.9599540427791295e-01  7.8150217256670673e-01  8.6663758681476211e-01  9.5147423636223860e-01  1.0358811583344865e+00  1.1198804573598713e+00  1.2035794324569908e+00  1.2869503448095347e+00  1.3700600679455412e+00  1.4527464371105927e+00  1.5349450938115363e+00  1.6168129459841445e+00  1.6983109567521779e+00  1.7795002248815486e+00  1.8602530545598721e+00  1.9406522380435829e+00  2.0205269558660639e+00  2.1008009186892749e+00  2.1797307307404585e+00  2.2582105054957329e+00  2.3362838602256466e+00  2.4130152153634077e+00  2.4897126662064237e+00  2.5668837977234893e+00  2.6442738381819439e+00  2.7217570950442229e+00  2.7968919690893062e+00  2.8707169496457552e+00  2.9426407336377820e+00  3.0194956753061248e+00  3.0923101599420435e+00  3.1651543848130679e+00  3.2401261885115442e+00  3.3091443212350988e+00  3.3827768331413663e+00  3.4550369408868988e+00  3.5267402606443929e+00  3.5980435845562315e+00  3.6687470932921431e+00  3.7374789717213166e+00  3.8058864547927662e+00  3.8753359042561493e+00  3.9429077541604913e+00  4.0089876280393586e+00  4.0737827732363234e+00  4.1423841014664804e+00  4.2069843587845464e+00  4.2723954877960688e+00  4.3388449397024997e+00  4.4061499880445671e+00  4.4735456587800115e+00  4.5416224649779737e+00  4.6100157195484206e+00  4.6779734296991089e+00  4.7447370411339271e+00  4.8128180315624718e+00  4.8796925443660042e+00  4.9460200228168194e+00  5.0115078188349020e+00  5.0793628181919361e+00  5.1476006207859726e+00  5.2171622996840270e+00  5.2878930161678444e+00  5.3593995475326572e+00  5.4326294525542878e+00  5.5021383964425485e+00  5.5695365549732783e+00  5.6329059532640358e+00  5.6940015559150190e+00  5.7480882944342522e+00  5.7948194395674468e+00  5.8327173360465689e+00  5.8645266681060626e+00  5.8905517056449295e+00  5.9112532185371265e+00  5.9281740967847076e+00  5.9417143692839431e+00  5.9530362098762639e+00  5.9628230112473464e+00  5.9716291036968974e+00  5.9796138831664551e+00  5.9871202091884168e+00  5.9943005799489448e+00  6.0012434085551476e+00  6.0080342260093742e+00  6.0147130600813394e+00  6.0213223298953782e+00  6.0278833123022144e+00  6.0344064479662016e+00  6.0408950905647245e+00  6.0473647746888677e+00  6.0538112810083877e+00  6.0602375702694182e+00  6.0666433335428307e+00  6.0730309016872335e+00  6.0793993159290078e+00  6.0857487710360960e+00  6.0920789146022356e+00  6.0983897252140711e+00  6.1046813764158125e+00  6.1109530129264176e+00  6.1172051585053682e+00  6.1234371895791355e+00  6.1296494310135055e+00  6.1358416067559212e+00  6.1420136653937440e+00  6.1481657471292204e+00  6.1542977218568291e+00  6.1604096398880603e+00  6.1665015184032601e+00  6.1725733914517562e+00  6.1786253005751979e+00  6.1846572790464585e+00  6.1906693651449256e+00  6.1966615743119089e+00  6.1966612506818350e+00  6.1966604384001380e+00  6.1966591775373141e+00  6.1966576448646720e+00  6.1966561128272737e+00  6.1966548470129670e+00  6.1966540410328861e+00  6.1966537167290641e+00  5.1904483817411045e+00  5.4859470049771151e+00  6.5244900041017484e+00  6.2063241386249794e+00  6.2833838824841726e+00  6.0684069972887524e+00  6.0104944151175488e+00  5.9829927777010203e+00  5.9712694107958395e+00  5.9692763446248263e+00  5.9719705765708566e+00  5.9773817680936014e+00  5.9847469119692525e+00  5.9936060838205165e+00  6.0037861717887662e+00  6.0147821944692250e+00  6.0270258873307423e+00  5.0448521876408767e+00  4.8794260767806401e+00  4.7184111607664994e+00  4.5656288925032626e+00  4.4224899560049007e+00  4.2686580104615013e+00  5.7620877040806278e+00  5.3268067470425482e+00  4.1036224065827032e+00  3.9304661520169732e+00  3.7345739852514828e+00  5.4488961966564071e+00  3.5278002141245404e+00  3.3313526759454755e+00  6.0399029319367132e+00  3.1030906766419522e+00  5.0459376325334802e+00  4.7793216094760309e+00  2.8601286307074556e+00  4.5072213565275616e+00  6.0541234245545468e+00  4.1825870390518105e+00  2.6321892600509771e+00  6.0681193746155788e+00  5.2854850698489164e+00  2.3762611630338704e+00  3.8401143135493654e+00  5.5340880049803864e+00  6.0842019541796297e+00  2.1133992475866283e+00  3.4190721638629680e+00  6.1019276860265474e+00  3.2063914392668877e+00  1.8399476733005165e+00  2.9766247114819460e+00  5.7698829289731819e+00  1.5475776322114025e+00  6.1197683340529769e+00  2.7563390842827644e+00  5.8798826502589314e+00  5.9372694958757801e+00  2.5268286731971026e+00  1.2628541383427838e+00  6.1396525877295201e+00  6.1544519667562492e+00  3.6334051712580990e+00  1.0321001642120886e+00  7.8658988216079795e-01  5.9755231193034142e+00  2.2946165917479653e+00  1.9750466538597853e+00  5.9981397888326056e+00  6.3386528683122147e+00  6.5361470845083574e+00  6.0178668731975931e+00  1.7381287843248088e+00  5.5625370328809931e-01  6.0432564604915608e+00  1.4112376531227568e+00  6.0760408706264846e+00  1.1619821211563870e+00  6.1078176544187039e+00  9.0970886742129486e-01  6.1264416128759098e+00  6.1633249982706779e+00  6.1452349813783842e+00  6.5324330109265194e-01  6.1916151376293911e+00  8.1006937369192455e-02  6.1709665322891381e+00  5.4027370388304607e+00  4.0216564230644997e-01  2.9480086575746633e-01  5.4755182262312703e+00  5.3398428415717278e+00  5.6607514426451964e+00  5.1847312749035064e+00  5.9582398441693352e+00  6.0312043670639772e+00  6.0567206292322000e+00  6.0896541337972865e+00  4.0416761264140790e+00  4.3709119458523089e+00  4.6382698095100849e+00  4.9129132861649127e+00  6.1293000451091659e+00  6.1106302795494800e+00  2.1395308388223815e+00  1.5760202073025384e+00  6.0934699088929234e+00  1.4140300507420189e+00  6.1755026727616533e+00  1.6956600546026048e+00  1.9780337326584092e+00  6.0762847892552170e+00  2.2461561176836020e+00  6.1915823072174652e+00  2.5055331418291904e+00  6.0613234264502651e+00  2.7599404252068571e+00  2.9806480527809702e+00  4.1893513414513253e+00  3.2208642369197849e+00  6.0467117171119815e+00  3.4309762995768209e+00  3.6351681866691639e+00  3.8321575149663514e+00  6.0332906935672188e+00  4.0119122761504302e+00  6.8545513421151519e-02  6.0208650984413392e+00  6.0092026127933842e+00  5.9983700706877734e+00  5.9892899214026487e+00  5.9807124743896942e+00  5.9743818766537986e+00  5.9701665452161468e+00  5.9696761707478618e+00  5.1194880687818829e+00  5.9769444376026657e+00  5.9969597049204175e+00  6.0399278204373124e+00  4.9635909767066693e+00  6.1277460533020713e+00  4.6426661591069376e+00  4.7939242551614250e+00  4.5004770201512851e+00  4.3481536748440321e+00  6.1920093166359429e+00  6.0098587104842975e+00  8.1838421564895139e-02  6.1820041496196092e+00  2.1889383388195988e-01  5.3708511568519048e+00  6.8725667398489371e-02  6.1921382478258833e+00  5.3579217939137314e+00  5.3547447436440141e+00  5.3367956140478308e+00  5.3528075497939334e+00  5.3341723076333905e+00  5.3510827118457964e+00  5.3300610919899709e+00  5.3491002031636521e+00  5.3259334523756987e+00  5.3462119353673980e+00  5.3205078935445300e+00  5.3424304918550414e+00  5.3135080367045155e+00  5.3364016425146152e+00  5.3051996026387425e+00  5.3284985141556369e+00  5.2960137888793541e+00  5.3214787660177603e+00  5.2888534925960586e+00  5.3179543874727786e+00  5.2836227307155816e+00  5.3627482555534192e+00  5.2556845816379276e+00  5.2506640798841682e+00  5.3587343884761438e+00  5.4127151366283019e+00  5.2251146475039327e+00  5.2168638917800116e+00  5.1933113124799126e+00  5.1805110631252616e+00  5.1545950100254805e+00  5.1397398673609791e+00  5.1108775514879854e+00  5.0956288144680713e+00  5.0623643942638203e+00  5.0475859837530743e+00  5.0096982533548662e+00  4.9889773383432132e+00  4.9533813650171998e+00  4.9341808956525472e+00  4.8970967230997839e+00  4.8765465821194258e+00  4.8410279424646498e+00  4.8227759632867180e+00  4.7874584541481138e+00  4.7704657720477206e+00  4.7359911539193291e+00  4.7214355432364883e+00  4.6872681361214177e+00  4.6729808719283303e+00  4.6412132737471596e+00  5.4038400886298330e+00  5.4609116867971039e+00  4.6251225253502932e+00  4.5926825230582766e+00  4.5783844617289429e+00  4.5489068757908440e+00  4.5332041416694020e+00  4.5060834323008718e+00  4.4868868131922994e+00  4.4612538165888882e+00  4.4393594724247238e+00  4.4145471751284902e+00  5.2451654220298058e+00  4.3905493584931765e+00  4.3660185858098357e+00  4.3402848652717898e+00  4.3158470498521240e+00  4.2887972357567863e+00  4.2642465709889397e+00  5.4486604339672970e+00  5.5065627691321692e+00  5.3705808329127551e+00  4.2360171527874577e+00  4.2109884025489777e+00  5.4796909909358060e+00  4.1822034541906703e+00  4.1566504579412422e+00  4.1275400950053518e+00  4.1015326857689063e+00  4.0722138177279970e+00  4.0453885356602965e+00  5.1283922003603699e+00  4.0162406537517823e+00  3.9886749663552008e+00  3.9595014000404265e+00  3.9313497876170658e+00  3.9021372450520415e+00  3.8734379475697960e+00  5.2841650065446437e+00  4.9693420097222880e+00  3.8441812250783349e+00  3.8150875855980635e+00  5.4908378544024652e+00  5.5550239539974715e+00  5.4344347790421352e+00  4.8069430629704994e+00  3.7855149816929505e+00  3.7550333164339205e+00  3.7259895328668189e+00  3.6945698288557831e+00  3.6657073859675733e+00  3.6350313294711953e+00  4.2384218502799618e+00  3.7832546414407178e+00  4.0747615280809555e+00  4.3898305175353851e+00  3.6051949454439733e+00  3.5749204350236834e+00  3.6051507846651809e+00  3.5457564695988957e+00  3.5142805793147636e+00  3.4861061221376990e+00  3.4531640216154678e+00  3.4244636315015393e+00  3.3911657017614352e+00  3.3611795682704178e+00  3.3285378898806264e+00  3.2980491227798172e+00  3.2653599147102645e+00  3.2343781145634849e+00  3.2017175998298004e+00  3.1701353537008292e+00  3.1373135390600635e+00  3.1053873198354598e+00  3.0723969030173603e+00  3.0397035192346236e+00  3.0069180841063576e+00  2.9737019673984020e+00  2.9408564332598912e+00  2.9070102342068753e+00  4.5230419674109292e+00  4.6573847545589420e+00  2.8742403195250423e+00  2.8400144269674681e+00  2.8070185292174759e+00  2.7720533881080054e+00  5.1249959185834832e+00  2.7384729821720151e+00  2.7035251489133070e+00  4.7559436890373341e+00  4.9186937789385388e+00  5.5289244246434706e+00  5.5874935495655675e+00  5.6240953140292831e+00  5.6532175322659377e+00  5.6922118828798469e+00  5.7156395350038292e+00  5.7576190187010239e+00  5.7724317855268596e+00  5.8192638046753018e+00  5.8213312498956551e+00  5.8712267799382278e+00  5.8600554752319658e+00  5.9118022951458808e+00  5.8930371493233586e+00  5.9459601501197277e+00  5.9198472621189140e+00  5.9566530178956230e+00  5.9305157989782353e+00  5.9632669008489874e+00  5.9437687810723734e+00  5.9665202556734513e+00  5.9487944404811666e+00  5.9666784165304172e+00  5.9514238595568179e+00  5.9652853287444945e+00  5.9526930347737066e+00  5.9638619611175017e+00  5.9536481758844326e+00  5.9291839182865456e+00  5.9430469043200453e+00  5.9458702852939584e+00  5.9543969387397526e+00  5.9482899504395004e+00  5.9550738747462342e+00  5.9504749681555413e+00  5.9557010747898991e+00  5.9525211644378233e+00  5.9441840461887949e+00  5.9574246380580496e+00  5.9545965694449343e+00  5.9583348069820685e+00  5.9567986536703454e+00  5.9530883938607548e+00  5.9560572906175642e+00  5.9591478671945213e+00  5.9590341765040096e+00  5.9615976102085524e+00  5.9619897034391602e+00  5.7312997226501583e+00  5.9641676462782796e+00  5.9650756241194705e+00  5.9628382522005605e+00  5.9663111591600950e+00  5.9682565208012779e+00  5.9697835010901326e+00  5.9714672966364883e+00  5.9732181113527876e+00  5.9665843950548831e+00  5.8848065227382129e+00  5.8759380202121081e+00  5.9898542677629267e+00  5.9749652075427289e+00  5.9767299268125553e+00  5.9752229270827497e+00  5.9789449060540782e+00  5.9802626147570921e+00  5.9826499013029046e+00  5.9838628586058009e+00  5.9863850115526098e+00  5.9851898451939149e+00  5.9890715164908856e+00  5.9902143615629821e+00  5.9929534787227592e+00  5.9524180640200921e+00  5.9940659671156213e+00  5.9968051267660574e+00  5.9871991703492036e+00  5.7736040912614106e+00  5.9640715673789551e+00  5.9771553468697700e+00  5.9978627325489953e+00  6.0007462964078266e+00  5.9994417235536162e+00  6.0036772916479277e+00  6.0046300886889368e+00  6.0077680039378007e+00  6.0068114087109379e+00  6.0109508105659755e+00  6.0118504172593346e+00  6.0150632604997849e+00  5.9605284514651311e+00  6.0159141807997916e+00  6.0192271647218938e+00  5.9881446222480044e+00  5.9618342196973817e+00  4.5138560535603780e+00  5.9608440049047440e+00  6.0183593117162486e+00  6.0225688403989892e+00  6.0233928100377003e+00  6.0267569382505375e+00  2.6699502481516046e+00  2.6349317954732809e+00  2.6016725459211467e+00  2.5652509149105125e+00  2.5321657524201635e+00  2.4949878234928820e+00  6.0277114973145061e+00  6.0310493082823635e+00  4.2602481249201469e+00  6.0302082056829223e+00  6.0344875024758684e+00  6.0351755174413153e+00  6.0387282816750831e+00  5.3699276779084855e+00  5.6343322690637834e+00  5.9700734188549323e+00  3.2672611906892381e+00  2.4619337070843890e+00  2.4247603633592454e+00  3.5763627985771445e+00  2.9415436798791372e+00  2.4578820621862483e+00  2.3878073653426486e+00  2.3542357970103684e+00  2.3169994450658846e+00  2.2832679798454669e+00  2.2454964243076003e+00  2.2117816100381984e+00  2.1745314793328889e+00  2.1398889754748169e+00  2.1022599516325737e+00  2.0673333269510290e+00  2.0284179003516813e+00  1.9941039235319387e+00  1.9546864577257412e+00  1.9202583596435134e+00  1.8805063736395700e+00  1.8467616808954521e+00  1.8059157653397404e+00  1.7719264779943347e+00  1.7306500647786296e+00  1.6955478183560906e+00  1.6546330423989140e+00  1.6193331546082554e+00  1.5781197022661535e+00  6.0394018931305897e+00  6.0429864858239650e+00  6.0425813602241352e+00  6.0467153028481899e+00  6.0473106382626947e+00  6.0509954767098781e+00  1.5425675480723424e+00  1.5010539666937852e+00  1.4650398348870344e+00  1.4233744145720690e+00  1.3817742517128266e+00  1.3442557194310287e+00  2.6668110554878841e+00  6.0500603359883414e+00  6.0547542396569671e+00  6.0555323075074226e+00  6.0593171415370159e+00  5.9816522891315795e+00  5.9849628152107615e+00  6.0586959021708040e+00  6.0632008237515294e+00  6.0636754479775377e+00  6.0676434745812928e+00  6.0681024231721663e+00  6.0720857306274452e+00  6.071627634