<?xml version="1.0"?>
<VTKFile type="UnstructuredGrid"  version="0.1"  >
<UnstructuredGrid>
<Piece  NumberOfPoints="2945" NumberOfCells="5525">
<Points>
<DataArray  type="Float64"  NumberOfComponents="3"  format="ascii">0 0.1 0  0.95 0.1 0  1 0.1 0  1 0 0  1.5 0 0  3 0 0  3 0.3 0  0 0.3 0  0.0197424558707114 0.1 0  0.03915669042224804 0.1 0  0.05824816022699029 0.1 0  0.07702223050332387 0.1 0  0.09548417327144595 0.1 0  0.1136391897583987 0.1 0  0.1314923700144587 0.1 0  0.1490487330862866 0.1 0  0.1663132263225292 0.1 0  0.1832906857273058 0.1 0  0.1999858946008978 0.1 0  0.216403545770297 0.1 0  0.2325482404045023 0.1 0  0.2484245348165176 0.1 0  0.2640368740372501 0.1 0  0.2793896589642241 0.1 0  0.2944872056237027 0.1 0  0.3093337469555254 0.1 0  0.3239334613687816 0.1 0  0.3382904528528069 0.1 0  0.3524087553122972 0.1 0  0.3662923366391824 0.1 0  0.3799451014768399 0.1 0  0.393370886920506 0.1 0  0.4065734648871676 0.1 0  0.419556546320114 0.1 0  0.4323237821343415 0.1 0  0.4448787573056132 0.1 0  0.4572250047274954 0.1 0  0.4693659926332938 0.1 0  0.4813051343276231 0.1 0  0.4930457849308193 0.1 0  0.5045912455271677 0.1 0  0.5159447600209797 0.1 0  0.5271095174127136 0.1 0  0.5380886618453393 0.1 0  0.5488852725463512 0.1 0  0.5595023868312478 0.1 0  0.5699429904313016 0.1 0  0.5802100167387366 0.1 0  0.5903063508274641 0.1 0  0.6002348329443006 0.1 0  0.6099982499579832 0.1 0  0.6195993483501782 0.1 0  0.6290408246013842 0.1 0  0.6383253354321616 0.1 0  0.6474554910757137 0.1 0  0.6564338522440513 0.1 0  0.6652629482939147 0.1 0  0.6739452579188948 0.1 0  0.6824832240165607 0.1 0  0.6908792415022103 0.1 0  0.6991356755989045 0.1 0  0.7072548438546967 0.1 0  0.7152390281534421 0.1 0  0.7230904746196039 0.1 0  0.7308113906759266 0.1 0  0.7384039435269326 0.1 0  0.7458702676581656 0.1 0  0.7532124631720397 0.1 0  0.7604325921167397 0.1 0  0.7675326856666862 0.1 0  0.7745147374421916 0.1 0  0.7813807123989068 0.1 0  0.7881325374362798 0.1 0  0.7947721131625659 0.1 0  0.8013013031866276 0.1 0  0.8077219449067021 0.1 0  0.8140358419942376 0.1 0  0.8202447685401882 0.1 0  0.8263504700910924 0.1 0  0.8323546643163114 0.1 0  0.8382590362474568 0.1 0  0.8440652473522128 0.1 0  0.8497749272799842 0.1 0  0.8553896837646281 0.1 0  0.8609110933285474 0.1 0  0.866340708855119 0.1 0  0.8716800550492284 0.1 0  0.8769306339052932 0.1 0  0.8820939206038667 0.1 0  0.8871713655604893 0.1 0  0.8921643975475726 0.1 0  0.8970744196575535 0.1 0  0.9019028106970642 0.1 0  0.9066509291259979 0.1 0  0.9113201098984042 0.1 0  0.9159116634553873 0.1 0  0.9204268818729691 0.1 0  0.9248670319440222 0.1 0  0.9292333656649013 0.1 0  0.9335271075812669 0.1 0  0.9377494640511216 0.1 0  0.941901623463222 0.1 0  0.9459847526686701 0.1 0  0.9538461538461205 0.1 0  0.9576923076922409 0.1 0  0.9615384615384381 0.1 0  0.9653846153846337 0.1 0  0.9692307692307542 0.1 0  0.9730769230768747 0.1 0  0.9769230769229952 0.1 0  0.9807692307691157 0.1 0  0.9846153846152361 0.1 0  0.9884615384614317 0.1 0  0.9923076923076356 0.1 0  0.9961538461538395 0.1 0  1 0.09591793123533533 0  1 0.09133596463859224 0  1 0.08619288104391448 0  1 0.08041996484521211 0  1 0.07394008421771697 0  1 0.06666666567302955 0  1 0.05850252932209174 0  1 0.04933859630113544 0  1 0.03905242821848202 0  1 0.02750659386753798 0  1 0.01454683679239736 0  1.015625 0 0  1.03125 0 0  1.046875 0 0  1.0625 0 0  1.078125 0 0  1.09375 0 0  1.109375 0 0  1.125 0 0  1.140625 0 0  1.15625 0 0  1.171875 0 0  1.1875 0 0  1.203125 0 0  1.21875 0 0  1.234375 0 0  1.25 0 0  1.265625 0 0  1.28125 0 0  1.296875 0 0  1.3125 0 0  1.328125 0 0  1.34375 0 0  1.359375 0 0  1.375 0 0  1.390625 0 0  1.40625 0 0  1.421875 0 0  1.4375 0 0  1.453125 0 0  1.46875 0 0  1.484375 0 0  1.515920751924515 0 0  1.531989369316721 0 0  1.54820720925872 0 0  1.564575665560501 0 0  1.581096138674279 0 0  1.597770029901263 0 0  1.614598783332311 0 0  1.631583831055205 0 0  1.64872661129721 0 0  1.666028606716533 0 0  1.683491276608443 0 0  1.701116134125304 0 0  1.718904673324128 0 0  1.736858414799339 0 0  1.754978895814663 0 0  1.773267661782904 0 0  1.791726281103402 0 0  1.810356325314689 0 0  1.8291593848892 0 0  1.848137076690385 0 0  1.867291007717254 0 0  1.886622833871288 0 0  1.90613418642363 0 0  1.925826753299799 0 0  1.945702199101513 0 0  1.96576223584749 0 0  1.986008569283268 0 0  2.006442931928877 0 0  2.02706707547783 0 0  2.047882750887917 0 0  2.06889175187935 0 0  2.090095860038271 0 0  2.111496891648636 0 0  2.133096679109554 0 0  2.154897066851056 0 0  2.176899916687499 0 0  2.199107102752146 0 0  2.22152053937028 0 0  2.244142122958061 0 0  2.266973806444078 0 0  2.290017523268154 0 0  2.313275249499252 0 0  2.336748971745516 0 0  2.360440702338606 0 0  2.384352453384031 0 0  2.408486280477412 0 0  2.432844240041185 0 0  2.457428414757088 0 0  2.482240901796653 0 0  2.507283830121838 0 0  2.532559332080812 0 0  2.558069568787417 0 0  2.583816724966441 0 0  2.60980299606584 0 0  2.636030600971886 0 0  2.662501790984011 0 0  2.689218818279327 0 0  2.716183964547616 0 0  2.743399548861297 0 0  2.77086788244719 0 0  2.798591312896326 0 0  2.826572223178268 0 0  2.854812990138617 0 0  2.883316031690714 0 0  2.912083780657189 0 0  2.941118704633482 0 0  2.970423276998917 0 0  3 0.02999999999994495 0  3 0.05999999999987042 0  3 0.089999999999783 0  3 0.119999999999701 0  3 0.149999999999619 0  3 0.179999999999692 0  3 0.2099999999997737 0  3 0.2399999999998511 0  3 0.2699999999999185 0  2.970138294777171 0.3 0  2.940375666438236 0.3 0  2.910711782853056 0.3 0  2.881146331305122 0.3 0  2.851678975030285 0.3 0  2.822309388626621 0.3 0  2.793037250095074 0.3 0  2.76386223529133 0.3 0  2.734784017903872 0.3 0  2.705802289276642 0.3 0  2.676916713794697 0.3 0  2.648126987654635 0.3 0  2.619432780406184 0.3 0  2.590833779385199 0.3 0  2.562329669847737 0.3 0  2.533920134950189 0.3 0  2.505604855727852 0.3 0  2.477383539822502 0.3 0  2.449255847639465 0.3 0  2.421221492569094 0.3 0  2.393280152486815 0.3 0  2.36543151914496 0.3 0  2.337675285481809 0.3 0  2.310011142385583 0.3 0  2.282438797441587 0.3 0  2.254957931061538 0.3 0  2.227568248063605 0.3 0  2.200269436651085 0.3 0  2.173061204949961 0.3 0  2.145943251515011 0.3 0  2.118915272469994 0.3 0  2.091976978084957 0.3 0  2.065128060700849 0.3 0  2.038368218849433 0.3 0  2.01169717777258 0.3 0  1.985114624111908 0.3 0  1.958620267850966 0.3 0  1.93221382054972 0.3 0  1.905894991850698 0.3 0  1.879663489459713 0.3 0  1.853519019126419 0.3 0  1.827461291053897 0.3 0  1.801490031354372 0.3 0  1.775604937580312 0.3 0  1.74980572560258 0.3 0  1.724092118631866 0.3 0  1.698463829173586 0.3 0  1.672920575782554 0.3 0  1.647462076974085 0.3 0  1.622088043536933 0.3 0  1.5967981978949 0.3 0  1.571592267767068 0.3 0  1.546469970305736 0.3 0  1.521431023814044 0.3 0  1.496475156230927 0.3 0  1.471602093687753 0.3 0  1.446811560490646 0.3 0  1.422103279101731 0.3 0  1.397476971708191 0.3 0  1.37293238939876 0.3 0  1.348469231419202 0.3 0  1.324087248732772 0.3 0  1.299786165921677 0.3 0  1.275565710847046 0.3 0  1.251425617644257 0.3 0  1.227365618676339 0.3 0  1.203385446174014 0.3 0  1.179484853067473 0.3 0  1.155663548773374 0.3 0  1.131921292279077 0.3 0  1.108257802159295 0.3 0  1.084672829009693 0.3 0  1.061166115303374 0.3 0  1.037737392995421 0.3 0  1.01438640299116 0.3 0  0.991112899770314 0.3 0  0.9679166155523955 0.3 0  0.944797284182564 0.3 0  0.921754678526042 0.3 0  0.8987885143602501 0.3 0  0.8758985548820624 0.3 0  0.8530845484099929 0.3 0  0.8303462351786988 0.3 0  0.8076833651172373 0.3 0  0.7850956864865304 0.3 0  0.7625829601354557 0.3 0  0.7401449314598274 0.3 0  0.717781337993959 0.3 0  0.6954919649675473 0.3 0  0.6732765357561226 0.3 0  0.6511348120768439 0.3 0  0.6290665642016573 0.3 0  0.6070715355430467 0.3 0  0.5851494825775325 0.3 0  0.5633001690203812 0.3 0  0.5415233562273221 0.3 0  0.5198187909431873 0.3 0  0.4981862401387795 0.3 0  0.4766254686134248 0.3 0  0.4551362360485234 0.3 0  0.4337182975262159 0.3 0  0.4123714223228037 0.3 0  0.3910953802377493 0.3 0  0.3698899313205595 0.3 0  0.3487548463710963 0.3 0  0.3276898864081783 0.3 0  0.3066948129116018 0.3 0  0.2857694003037476 0.3 0  0.2649134227095047 0.3 0  0.2441266417321288 0.3 0  0.2234088223399122 0.3 0  0.2027597568977288 0.3 0  0.1821792020676698 0.3 0  0.1616669305402443 0.3 0  0.1412227158799362 0.3 0  0.12084633013886 0.3 0  0.1005375673448281 0.3 0  0.08029618164595353 0.3 0  0.06012194778526769 0.3 0  0.04001466495039718 0.3 0  0.01997408913631205 0.3 0  0 0.2800000000000553 0  0 0.2600000000001105 0  0 0.2400000000001658 0  0 0.2200000000002211 0  0 0.2000000000002764 0  0 0.1800000000002244 0  0 0.1600000000001691 0  0 0.140000000000115 0  0 0.1200000000000564 0  1.133778471000506 0.01219539743990768 0  1.003741919047894 0.09354664821474232 0  0.9559421147150347 0.1035858189992458 0  0.9313792160389045 0.1037365237938103 0  0.9788461538460573 0.1033060829993555 0  0.9090102438250753 0.1037269304984056 0  0.8846304212778655 0.1043349840723655 0  0.8581503885465881 0.104741932962923 0  0.8286416220145676 0.1052762843984476 0  0.7982741772533339 0.1053575624517407 0  0.7708789559342691 0.1060290465840416 0  0.741870349714261 0.1078220590984258 0  0.7112469360040695 0.10685702926368 0  0.6783901541417233 0.1079959711853378 0  0.642884733623195 0.1075561996086514 0  0.6056235042367955 0.1085956039602543 0  0.5647007593786924 0.1083187281660325 0  1.1953125 0.01353164693413185 0  1.258148737344733 0.01268350115427042 0  1.320087046516829 0.01426312402966312 0  1.383495130751951 0.01432665475473204 0  1.4453125 0.01315663539200989 0  1.50886768312388 0.01395488397722681 0  0.9942307692307371 0.103330866937657 0  1.119309781943483 0.2802014914557878 0  1.572831235329714 0.01707210522554785 0  1.637611634353954 0.01209340368483431 0  1.709661292005932 0.0146870244871893 0  1.006561890631532 0.07068055446055937 0  1.784793444007901 0.01499371444634687 0  1.855459587353174 0.0
[...]
<PointData  Scalars="pressure"> 
<DataArray  type="Float64"  Name="pressure"  format="ascii">-1.6491210638847068e+01  -1.7724144042885673e+01  -1.6873527392272567e+01  -1.5808209787655743e+01  -1.2195386290234946e+01  0.0000000000000000e+00  0.0000000000000000e+00  -1.6491198050390295e+01  -1.6497133366092825e+01  -1.6502957782084632e+01  -1.6508685562672245e+01  -1.6514318340363374e+01  -1.6519857752856115e+01  -1.6525305363223151e+01  -1.6530662725300381e+01  -1.6535931457305594e+01  -1.6541112984823382e+01  -1.6546208879089448e+01  -1.6551220733277564e+01  -1.6556149910432175e+01  -1.6560997964902946e+01  -1.6565766320037230e+01  -1.6570456502010664e+01  -1.6575069922992622e+01  -1.6579608158571986e+01  -1.6584072562180481e+01  -1.6588464745898534e+01  -1.6592786094588533e+01  -1.6597038375614172e+01  -1.6601223207627388e+01  -1.6605341452425289e+01  -1.6609395490999812e+01  -1.6613386746051347e+01  -1.6617317273242357e+01  -1.6621189071337440e+01  -1.6625001336095114e+01  -1.6628761212122619e+01  -1.6632465552117502e+01  -1.6636122220216336e+01  -1.6639726957979999e+01  -1.6643286698565650e+01  -1.6646803048886500e+01  -1.6650281503991419e+01  -1.6653721525552772e+01  -1.6657127586144149e+01  -1.6660503862992989e+01  -1.6663851691340717e+01  -1.6667180343563967e+01  -1.6670490735261694e+01  -1.6673787318160354e+01  -1.6677083783172119e+01  -1.6680377006006246e+01  -1.6683670840779811e+01  -1.6686983825010817e+01  -1.6690314943889856e+01  -1.6693672743654012e+01  -1.6697078893731497e+01  -1.6700506388283024e+01  -1.6704031226928088e+01  -1.6707553978342805e+01  -1.6711227393460803e+01  -1.6714978990754975e+01  -1.6718835512307834e+01  -1.6722801964536224e+01  -1.6726921425149534e+01  -1.6731170897357170e+01  -1.6735697430073007e+01  -1.6740348630278781e+01  -1.6745126391846529e+01  -1.6750230879666574e+01  -1.6755627706536782e+01  -1.6761396121482559e+01  -1.6767331264680166e+01  -1.6773635409512842e+01  -1.6780349831764475e+01  -1.6787525307680859e+01  -1.6795164088625228e+01  -1.6803253066555044e+01  -1.6811902740621473e+01  -1.6821227461769464e+01  -1.6831305317760549e+01  -1.6842015907801823e+01  -1.6853453011170274e+01  -1.6865843179521757e+01  -1.6879168102864156e+01  -1.6893548926005920e+01  -1.6909370457694280e+01  -1.6926476927204060e+01  -1.6944770723152416e+01  -1.6964684297826498e+01  -1.6986550773105680e+01  -1.7010503435993478e+01  -1.7036755973008837e+01  -1.7065681354733496e+01  -1.7097676851749188e+01  -1.7132864309514670e+01  -1.7173011818795938e+01  -1.7215982166815749e+01  -1.7284857040496259e+01  -1.7307577141433551e+01  -1.7392879815324765e+01  -1.7469031416210960e+01  -1.7572899404662241e+01  -1.7915015559681127e+01  -1.8093099554080492e+01  -1.8239479412718975e+01  -1.8339457789295714e+01  -1.8386123191493652e+01  -1.8376075928710954e+01  -1.8308660673103844e+01  -1.8185029268796605e+01  -1.8005109660680553e+01  -1.7776307360346564e+01  -1.7507156935958179e+01  -1.7167258687084530e+01  -1.6628141667369906e+01  -1.6434821376561846e+01  -1.6322056505102250e+01  -1.6224355110258671e+01  -1.6142039813164999e+01  -1.6063777238844054e+01  -1.5994408220205925e+01  -1.5933494608625324e+01  -1.5880228565845853e+01  -1.5839272570504301e+01  -1.5814808281556822e+01  -1.5799486430751552e+01  -1.5765265233963213e+01  -1.5709137361590869e+01  -1.5634150733139148e+01  -1.5541817750289042e+01  -1.5441086636998870e+01  -1.5338805008657625e+01  -1.5229717093537342e+01  -1.5114930134150960e+01  -1.4998365107180721e+01  -1.4879819473139642e+01  -1.4759012676794855e+01  -1.4637679830458520e+01  -1.4514716616769586e+01  -1.4390567643109463e+01  -1.4265760919241306e+01  -1.4139922553034653e+01  -1.4011923530059050e+01  -1.3882868581672277e+01  -1.3759853130363114e+01  -1.3625824584246017e+01  -1.3500935469965727e+01  -1.3368701193376454e+01  -1.3237139902423264e+01  -1.3103319633643785e+01  -1.2983527476950947e+01  -1.2849716729381660e+01  -1.2720347567608313e+01  -1.2589516547868952e+01  -1.2459017522763766e+01  -1.2327555470100913e+01  -1.2060031946350691e+01  -1.1923354042286647e+01  -1.1785793297627331e+01  -1.1647566195237111e+01  -1.1501973425003209e+01  -1.1358326438617851e+01  -1.1211372840092615e+01  -1.1079934515740716e+01  -1.0938078594681464e+01  -1.0793026368085574e+01  -1.0647866993442900e+01  -1.0503599803944873e+01  -1.0358275041283230e+01  -1.0212253741198406e+01  -1.0064414486492275e+01  -9.9155250048641772e+00  -9.7650611170334454e+00  -9.6215498118289435e+00  -9.4645189650287218e+00  -9.3179794310963366e+00  -9.1619953205415960e+00  -9.0037239005525400e+00  -8.8458763228718755e+00  -8.6844318776410248e+00  -8.5229111144280036e+00  -8.3529308734398597e+00  -8.1894233178294034e+00  -8.0229473943395426e+00  -7.8566015259097517e+00  -7.6980550939659729e+00  -7.5288348312738265e+00  -7.3554855151422034e+00  -7.1811391507475131e+00  -7.0080447194512869e+00  -6.8318237732870850e+00  -6.6544887816583422e+00  -6.4743125367253382e+00  -6.2933702234537883e+00  -6.1102916455546614e+00  -5.9251759390663112e+00  -5.7382701775613683e+00  -5.5501783146708430e+00  -5.3600118772768210e+00  -5.1678576125208080e+00  -4.9731119565033675e+00  -4.7785556494358579e+00  -4.5823557660702319e+00  -4.3822371034884489e+00  -4.1804491512971707e+00  -3.9868528976635984e+00  -3.7750464775319443e+00  -3.5763296039444064e+00  -3.3610919210656336e+00  -3.1488715915936014e+00  -2.9461985798324570e+00  -2.7239587494043307e+00  -2.5155767978785639e+00  -2.2931503944880234e+00  -2.0698242701149572e+00  -1.8454149660939247e+00  -1.6343614070208481e+00  -1.3997150130778009e+00  -1.1746124456525957e+00  -9.4659431954079032e-01  -7.0302740012693821e-01  -4.8135292418341186e-01  -2.3707103095637475e-01  0.0000000000000000e+00  0.0000000000000000e+00  0.0000000000000000e+00  0.0000000000000000e+00  0.0000000000000000e+00  0.0000000000000000e+00  0.0000000000000000e+00  0.0000000000000000e+00  0.0000000000000000e+00  -2.3390980235683204e-01  -4.7355519141564612e-01  -7.2283529935836155e-01  -9.6158989750630064e-01  -1.1988559537565004e+00  -1.4347497397337043e+00  -1.6711022815832606e+00  -1.9069053671251277e+00  -2.1419530122307666e+00  -2.3761716190486348e+00  -2.6097350143969336e+00  -2.8423003205893038e+00  -3.0739286599894751e+00  -3.3049828968057242e+00  -3.5354487591173198e+00  -3.7654903404108149e+00  -3.9946495149338741e+00  -4.2227619223340227e+00  -4.4502505835635233e+00  -4.6771253153249761e+00  -4.9035666819510055e+00  -5.1292966383283876e+00  -5.3545770267985189e+00  -5.5790701536593934e+00  -5.8048012794773998e+00  -6.0274049670388310e+00  -6.2490748835586416e+00  -6.4697756995640381e+00  -6.6871231604375732e+00  -6.9053870834092024e+00  -7.1264563904234102e+00  -7.3493036273293022e+00  -7.5726725794688630e+00  -7.7890867074785239e+00  -8.0009271609525374e+00  -8.2080854941211108e+00  -8.4301004263468151e+00  -8.6431136588123962e+00  -8.8564824910963829e+00  -9.0755105508795477e+00  -9.2793274072397818e+00  -9.4969750540483737e+00  -9.7131331905324423e+00  -9.9289476337107576e+00  -1.0144665993683534e+01  -1.0359003819748692e+01  -1.0568664473942833e+01  -1.0778468172408422e+01  -1.0991766541898834e+01  -1.1200896880488070e+01  -1.1405666392578429e+01  -1.1607981614804086e+01  -1.1820329078115609e+01  -1.2022770361235832e+01  -1.2226012434130476e+01  -1.2430878992272120e+01  -1.2636404800619331e+01  -1.2840060605183188e+01  -1.3043382712702973e+01  -1.3245968778817568e+01  -1.3446584291747337e+01  -1.3644208850487848e+01  -1.3846066118503831e+01  -1.4046252614764660e+01  -1.4244857268756096e+01  -1.4440504573011337e+01  -1.4640477522822792e+01  -1.4838300266090354e+01  -1.5034713627497265e+01  -1.5229064522276516e+01  -1.5419723562038220e+01  -1.5608839384187318e+01  -1.5783665225135502e+01  -1.5946857013141164e+01  -1.6094722463320331e+01  -1.6232346081001094e+01  -1.6349057434977283e+01  -1.6445694996809696e+01  -1.6519597917265425e+01  -1.6576787735068834e+01  -1.6619743520718156e+01  -1.6649914181985068e+01  -1.6670974937578087e+01  -1.6683879663974480e+01  -1.6691057136670221e+01  -1.6694211496315887e+01  -1.6694824110429405e+01  -1.6693272030762575e+01  -1.6690205232428088e+01  -1.6686218071652501e+01  -1.6681456405955544e+01  -1.6676208763843022e+01  -1.6670591081182511e+01  -1.6664719987420330e+01  -1.6658679956322903e+01  -1.6652534819320707e+01  -1.6646291616360912e+01  -1.6640010123200877e+01  -1.6633695348875513e+01  -1.6627366999383696e+01  -1.6621029953897253e+01  -1.6614690778014928e+01  -1.6608358603747458e+01  -1.6602035253022972e+01  -1.6595724806615753e+01  -1.6589427507341490e+01  -1.6583146597826556e+01  -1.6576883144957492e+01  -1.6570636735828700e+01  -1.6564409338828622e+01  -1.6558200612791470e+01  -1.6552010980659606e+01  -1.6545840934800111e+01  -1.6539690351876434e+01  -1.6533559517591680e+01  -1.6527448442620539e+01  -1.6521357173220498e+01  -1.6515285726809143e+01  -1.6509234097035407e+01  -1.6503202282682320e+01  -1.6497190273266497e+01  -1.6491198086106127e+01  -1.6491198613524340e+01  -1.6491199909835590e+01  -1.6491201910997944e+01  -1.6491204342290938e+01  -1.6491206766162037e+01  -1.6491208774051398e+01  -1.6491210059934168e+01  -1.6491210592128272e+01  -1.5164973973182127e+01  -1.6483565139389011e+01  -1.7903340272407906e+01  -1.7291692760609987e+01  -1.8075325219605968e+01  -1.7080307477577762e+01  -1.6953975828238104e+01  -1.6872127805964418e+01  -1.6815254692506819e+01  -1.6777123099526690e+01  -1.6752741398612162e+01  -1.6733182092697842e+01  -1.6716872478700495e+01  -1.6702314170031674e+01  -1.6688639410493685e+01  -1.6675603592317547e+01  -1.6662170092196089e+01  -1.4698282260506375e+01  -1.4200603852414176e+01  -1.3694372089259984e+01  -1.3166668516122090e+01  -1.2654674350372559e+01  -1.2120267469643538e+01  -1.7304565375621639e+01  -1.5331970418625412e+01  -1.1574816137765938e+01  -1.1028399239319267e+01  -1.0433511035702098e+01  -1.6098965758218338e+01  -9.8233362148278349e+00  -9.2564329006371473e+00  -1.6648651129479322e+01  -8.6026060204832273e+00  -1.4540572877472325e+01  -1.3742886383979620e+01  -7.9142814454161350e+00  -1.2938564559103137e+01  -1.6634080894288296e+01  -1.1945474677625223e+01  -7.2775522894855662e+00  -1.6619918610582843e+01  -1.5491395685843056e+01  -6.5637118916589641e+00  -1.0882809115484815e+01  -1.5859969769830927e+01  -1.6603744000421980e+01  -5.8315754570887099e+00  -9.6057392935352102e+00  -1.6585972674698681e+01  -8.9771191833101174e+00  -5.0709793026066050e+00  -8.3069294620207170e+00  -1.6392833666287629e+01  -4.2599553336652161e+00  -1.6568111727761607e+01  -7.6721514812998750e+00  -1.6601969473371906e+01  -1.6680181215426380e+01  -7.0122307577845309e+00  -3.4729604420538438e+00  -1.6548217516986366e+01  -1.6533414771384109e+01  -1.0251528603416871e+01  -2.8358438076959311e+00  -2.1588090929615049e+00  -1.6694578826012485e+01  -6.3521673127846867e+00  -5.4513404856350061e+00  -1.6683818496823431e+01  -1.7509915128759854e+01  -1.8197149097008914e+01  -1.6667856392168986e+01  -4.7884981382938765e+00  -1.5262252505576137e+00  -1.6644019708868456e+01  -3.8798692268607935e+00  -1.6611700706188294e+01  -3.1903885614296903e+00  -1.6580014688259997e+01  -2.4949322021904052e+00  -1.6561406640938863e+01  -1.6524533369188937e+01  -1.6542620396373977e+01  -1.7896904826917850e+00  -1.6496247310305073e+01  -2.2178576885667886e-01  -1.6516898441129662e+01  -1.5896464210940360e+01  -1.1010278889109797e+00  -8.0788749446479924e-01  -1.6256925986208998e+01  -1.5681712630291820e+01  -1.6156469969551431e+01  -1.4942543406722105e+01  -1.6693426106338709e+01  -1.6655589273860681e+01  -1.6630842005784594e+01  -1.6598143002679247e+01  -1.1505980918257549e+01  -1.2527370223770601e+01  -1.3326401108680917e+01  -1.4143184107401657e+01  -1.6558574178518377e+01  -1.6577258190804251e+01  -5.9141211363171307e+00  -4.3371715037211231e+00  -1.6594447492504436e+01  -3.8910008286348794e+00  -1.6512356578499887e+01  -4.6704631802399605e+00  -5.4549276361335917e+00  -1.6611697613444470e+01  -6.2012765508218077e+00  -1.6496278352220294e+01  -6.9240811001366644e+00  -1.6626780801435899e+01  -7.6351308613750426e+00  -8.2540927453335264e+00  -1.1854648156872184e+01  -8.9392290762992790e+00  -1.6641644070004848e+01  -9.5430345294197192e+00  -1.0138433626264172e+01  -1.0727368763386448e+01  -1.6655539433058891e+01  -1.1281518097823632e+01  -1.8776118636447114e-01  -1.6668831838504889e+01  -1.6682061304804623e+01  -1.6695648774643065e+01  -1.6708950799425171e+01  -1.6725094747064652e+01  -1.6742726936449014e+01  -1.6764843854261397e+01  -1.6799019983746120e+01  -1.4931671279166071e+01  -1.6847397287504169e+01  -1.6917547745568708e+01  -1.7022546960789814e+01  -1.4452992168848436e+01  -1.7186363155091566e+01  -1.3438323454224630e+01  -1.3936839285928489e+01  -1.2933924729754777e+01  -1.2393191625755616e+01  -1.6495854581831725e+01  -1.7761801358776321e+01  -2.2376039201915512e-01  -1.6505860331722292e+01  -5.9807610846208048e-01  -1.5787521826007270e+01  -1.8848613921562216e-01  -1.6495721479894314e+01  -1.5744111962925352e+01  -1.5730156277354027e+01  -1.5667893736495747e+01  -1.5722007271505795e+01  -1.5657442748322845e+01  -1.5715942230181630e+01  -1.5643098596870969e+01  -1.5709511316049086e+01  -1.5629348955802833e+01  -1.5700061113793250e+01  -1.5610851795121286e+01  -1.5687044352782866e+01  -1.5585344142637904e+01  -1.5665275380699114e+01  -1.5552668568959197e+01  -1.5633872911683273e+01  -1.5511126106320511e+01  -1.5595987073519554e+01  -1.5467137185238574e+01  -1.5550322521329214e+01  -1.5417566539014121e+01  -1.5697270761892185e+01  -1.5327391069507405e+01  -1.5281757414090245e+01  -1.5640107490963583e+01  -1.5796635111548010e+01  -1.5192564980393028e+01  -1.5143783700055062e+01  -1.5068954393086106e+01  -1.5011831857575112e+01  -1.4938047465903786e+01  -1.4882392889807006e+01  -1.4809444729380717e+01  -1.4757023719382245e+01  -1.4678612932908660e+01  -1.4627048030976995e+01  -1.4542434132110802e+01  -1.4477192712867954e+01  -1.4398183098674021e+01  -1.4333946794544937e+01  -1.4249735017774311e+01  -1.4173989517810066e+01  -1.4093594561808114e+01  -1.4022257190130144e+01  -1.3935331555104332e+01  -1.3863012480981071e+01  -1.3773193765028863e+01  -1.3704441616363926e+01  -1.3610184272786240e+01  -1.3540591643210607e+01  -1.3447551570667343e+01  -1.5725801712289528e+01  -1.5876361347946258e+01  -1.3373895956260011e+01  -1.3273965087676327e+01  -1.3208770249225150e+01  -1.3111845855733664e+01  -1.3047728463166839e+01  -1.2956068799712838e+01  -1.2885150152065975e+01  -1.2795296138848883e+01  -1.2721791861082975e+01  -1.2632218375318622e+01  -1.5232603031163610e+01  -1.2557587209358745e+01  -1.2467181711853534e+01  -1.2391901162826619e+01  -1.2300590056085680e+01  -1.2225047528319916e+01  -1.2132459446473774e+01  -1.5805208405213607e+01  -1.5950757842691598e+01  -1.5778479963426554e+01  -1.2056037686959147e+01  -1.1961313340854050e+01  -1.5960085465428378e+01  -1.1884811236750435e+01  -1.1788464346358277e+01  -1.1712810425713405e+01  -1.1614732381708434e+01  -1.1539720346322168e+01  -1.1439254119978070e+01  -1.4843743359692139e+01  -1.1367048732100656e+01  -1.1263697647280235e+01  -1.1191776835825891e+01  -1.1087550569614738e+01  -1.1016425592655798e+01  -1.0911159885190989e+01  -1.5475536157980697e+01  -1.4411622451972214e+01  -1.0840405482446755e+01  -1.0734879355368914e+01  -1.5877165293097789e+01  -1.6036788621416381e+01  -1.5732168598254788e+01  -1.3947268323202824e+01  -1.0664742033987036e+01  -1.0554490434127416e+01  -1.0486182403774814e+01  -1.0374023975098105e+01  -1.0306106796315047e+01  -1.0197498386758172e+01  -1.2037305379371956e+01  -1.0620974008914349e+01  -1.1515192698091221e+01  -1.2542484722934441e+01  -1.0125958884684328e+01  -1.0020064274946824e+01  -1.0092766826835470e+01  -9.9184643072270031e+00  -9.8415918083725913e+00  -9.7440570864207192e+00  -9.6622318210376310e+00  -9.5643627201977992e+00  -9.4811485670046594e+00  -9.3807694329917251e+00  -9.2989112374536820e+00  -9.1979721595427950e+00  -9.1155835403793546e+00  -9.0142591953242430e+00  -8.9317849122067798e+00  -8.8293440254477105e+00  -8.7459606660729641e+00  -8.6430856710571220e+00  -8.5593085082483764e+00  -8.4550075439061416e+00  -8.3713973894073543e+00  -8.2665766955606124e+00  -8.1827628590943746e+00  -8.0765674077828002e+00  -1.3021524652401807e+01  -1.3462541580312116e+01  -7.9924940260779946e+00  -7.8861989093353895e+00  -7.8006391850731509e+00  -7.6932722531033919e+00  -1.4865542558935699e+01  -7.6053631711450311e+00  -7.4991283518986132e+00  -1.3846848867618361e+01  -1.4315802676276491e+01  -1.5938795879401875e+01  -1.6070472311936339e+01  -1.6188054259101911e+01  -1.6225345003122911e+01  -1.6334589605430679e+01  -1.6360735048522727e+01  -1.6468964281261670e+01  -1.6478571393035782e+01  -1.6591227828482058e+01  -1.6578119464023672e+01  -1.6693512517636570e+01  -1.6656661840467063e+01  -1.6772929884895753e+01  -1.6722967326049179e+01  -1.6844961398290419e+01  -1.6779549756283302e+01  -1.6866882707458789e+01  -1.6800178011491081e+01  -1.6880799316099210e+01  -1.6828588092044036e+01  -1.6886396627893841e+01  -1.6836474015419999e+01  -1.6882704523488094e+01  -1.6837199775886575e+01  -1.6873353977499104e+01  -1.6833325091775009e+01  -1.6861958895957386e+01  -1.6826996927188002e+01  -1.6784808178708939e+01  -1.6798557596964532e+01  -1.6796337955615488e+01  -1.6818997655785573e+01  -1.6792471115393703e+01  -1.6810084433052303e+01  -1.6787323220090467e+01  -1.6801026912297441e+01  -1.6781495378193224e+01  -1.6770324612844128e+01  -1.6795212803100345e+01  -1.6775436749939391e+01  -1.6783768337750136e+01  -1.6768645197227205e+01  -1.6759611173373887e+01  -1.6755046400032956e+01  -1.6762080422696759e+01  -1.6750327237422322e+01  -1.6755252961480103e+01  -1.6745292740261853e+01  -1.6441936722719610e+01  -1.6748689026820941e+01  -1.6740214449116515e+01  -1.6735794327371845e+01  -1.6731887839913181e+01  -1.6735316326863519e+01  -1.6727843962009494e+01  -1.6730428016572336e+01  -1.6723644245351498e+01  -1.6895555431562546e+01  -1.6697176639656849e+01  -1.6720222084754653e+01  -1.6945345032661340e+01  -1.6725857537330189e+01  -1.6719393112454146e+01  -1.6717350719945188e+01  -1.6713554697139482e+01  -1.6715051719959813e+01  -1.6709661087774858e+01  -1.6710650796070492e+01  -1.6705647583795400e+01  -1.6704636072695617e+01  -1.6700972009799333e+01  -1.6701515830593230e+01  -1.6697127608721811e+01  -1.6745969043930526e+01  -1.6697330289084043e+01  -1.6693220239630840e+01  -1.6937832189655897e+01  -1.6465429563223264e+01  -1.6727403859246053e+01  -1.6902076644082076e+01  -1.6693196294874486e+01  -1.6689146778249253e+01  -1.6689437897600200e+01  -1.6685242606042774e+01  -1.6685133885662037e+01  -1.6681181276427818e+01  -1.6681322921204242e+01  -1.6677348499773800e+01  -1.6677085406134289e+01  -1.6673331454664968e+01  -1.6823344349234855e+01  -1.6672976463472953e+01  -1.6669213075654138e+01  -1.6699863665555252e+01  -1.6764418569184933e+01  -1.2975272886951855e+01  -1.6799681707628633e+01  -1.6669610421168034e+01  -1.6665514801118810e+01  -1.6665057870719515e+01  -1.6661393240194720e+01  -7.4106867835057617e+00  -7.3051017690880444e+00  -7.2168122208153740e+00  -7.1082054195783986e+00  -7.0196447399140665e+00  -6.9099011066916702e+00  -1.6660724925950284e+01  -1.6657136656180363e+01  -1.2148141388274391e+01  -1.6657708202691833e+01  -1.6653498152848009e+01  -1.6653021318302180e+01  -1.6649299595694220e+01  -1.5781452786469785e+01  -1.6158295587790327e+01  -1.6737865593063582e+01  -9.0968621729252046e+00  -6.8207461412050714e+00  -6.7119529272913789e+00  -9.9940948575814730e+00  -8.1658348153534810e+00  -6.8010054135226179e+00  -6.6043612407515013e+00  -6.5134195931880940e+00  -6.4057941444303674e+00  -6.3138652325875881e+00  -6.2054406796474941e+00  -6.1131316402699785e+00  -6.0067955773638113e+00  -5.9114952087759489e+00  -5.8046571040607242e+00  -5.7082776191448312e+00  -5.5983388872370572e+00  -5.5034222326090809e+00  -5.3925306595148195e+00  -5.2970869151285340e+00  -5.1856760560833326e+00  -5.091980958858868