<?xml version="1.0"?>
<VTKFile type="UnstructuredGrid"  version="0.1"  >
<UnstructuredGrid>
<Piece  NumberOfPoints="2705" NumberOfCells="5060">
<Points>
<DataArray  type="Float64"  NumberOfComponents="3"  format="ascii">0 0.1 0  0.98 0.1 0  1 0.1 0  1 0 0  3 0 0  3 0.3 0  0 0.3 0  0.01975375321854102 0.1 0  0.03918897458218897 0.1 0  0.05831079002627837 0.1 0  0.07712425666319796 0.1 0  0.0956343475259058 0.1 0  0.1138459546796227 0.1 0  0.1317638870668193 0.1 0  0.1493928840275937 0.1 0  0.1667376092280033 0.1 0  0.1838026357802664 0.1 0  0.2005924801287244 0.1 0  0.2171115811543574 0.1 0  0.2333643037107681 0.1 0  0.2493549444060462 0.1 0  0.2650877293306821 0.1 0  0.2805668058011438 0.1 0  0.2957962848620976 0.1 0  0.3107801766802674 0.1 0  0.3255224447361181 0.1 0  0.3400269848175519 0.1 0  0.3542976327080778 0.1 0  0.3683381609158136 0.1 0  0.3821522744564845 0.1 0  0.3957436316838916 0.1 0  0.4091158196437086 0.1 0  0.4222723742184605 0.1 0  0.4352167733293057 0.1 0  0.4479524348643424 0.1 0  0.4604827295467524 0.1 0  0.4728109659990664 0.1 0  0.4849404035409129 0.1 0  0.4968742471455402 0.1 0  0.508615651843175 0.1 0  0.520167721130924 0.1 0  0.5315335063628542 0.1 0  0.5427160117228604 0.1 0  0.5537181940261912 0.1 0  0.564542961924507 0.1 0  0.575193173270606 0.1 0  0.5856716438765114 0.1 0  0.5959811458006617 0.1 0  0.6061243988680743 0.1 0  0.6161040893285659 0.1 0  0.6259228503970299 0.1 0  0.6355832809287655 0.1 0  0.6450879281079505 0.1 0  0.6544393102991295 0.1 0  0.663639896558931 0.1 0  0.6726921201956305 0.1 0  0.6815983691630338 0.1 0  0.6903610031396646 0.1 0  0.6989823343332418 0.1 0  0.7074646404270378 0.1 0  0.7158101645005117 0.1 0  0.7240211149852543 0.1 0  0.7320996585612525 0.1 0  0.7400479319727645 0.1 0  0.7478680336617921 0.1 0  0.755562036504958 0.1 0  0.7631319665092091 0.1 0  0.7705798279317605 0.1 0  0.777907588066146 0.1 0  0.7851171851013118 0.1 0  0.7922105226004981 0.1 0  0.7991894774550319 0.1 0  0.8060558928136696 0.1 0  0.812811583201334 0.1 0  0.8194583352091183 0.1 0  0.8259979035038147 0.1 0  0.8324320194413813 0.1 0  0.8387623808293405 0.1 0  0.8449906627004957 0.1 0  0.8511185094880469 0.1 0  0.8571475426008311 0.1 0  0.8630793533568246 0.1 0  0.8689155114558531 0.1 0  0.8746575581239063 0.1 0  0.8803070109173519 0.1 0  0.885865363938836 0.1 0  0.8913340851680313 0.1 0  0.8967146206523592 0.1 0  0.9020083930695622 0.1 0  0.9072167995950768 0.1 0  0.9123412183131177 0.1 0  0.9173830029719022 0.1 0  0.9223434865647732 0.1 0  0.9272239785872722 0.1 0  0.9320257720706087 0.1 0  0.9367501330378739 0.1 0  0.9413983102716995 0.1 0  0.9459715351562933 0.1 0  0.9504710127113115 0.1 0  0.9548979346500661 0.1 0  0.9592534708344373 0.1 0  0.9635387708980176 0.1 0  0.9677549682252325 0.1 0  0.971903177251235 0.1 0  0.9759844952956497 0.1 0  0.9840000000000086 0.1 0  0.987999999999974 0.1 0  0.9919999999999393 0.1 0  0.9959999999999913 0.1 0  1 0.09591793123533533 0  1 0.09133596463859224 0  1 0.08619288104391448 0  1 0.08041996484521211 0  1 0.07394008421771697 0  1 0.06666666567302955 0  1 0.05850252932209174 0  1 0.04933859630113544 0  1 0.03905242821848202 0  1 0.02750659386753798 0  1 0.01454683679239736 0  1.016020550394751 0 0  1.032153385236268 0 0  1.048399294954455 0 0  1.064759072477566 0 0  1.081233515533994 0 0  1.097823427949778 0 0  1.114529617202262 0 0  1.131352900433151 0 0  1.148294101583001 0 0  1.165354040242892 0 0  1.182533552515274 0 0  1.199833475866261 0 0  1.217254652230041 0 0  1.234797936155386 0 0  1.252464178425587 0 0  1.270254255168802 0 0  1.288169006479837 0 0  1.306209325437119 0 0  1.324376095845444 0 0  1.342670189274758 0 0  1.36109251192469 0 0  1.379643952662183 0 0  1.398325417002887 0 0  1.41713782425084 0 0  1.436082080652155 0 0  1.455159124826087 0 0  1.474369882349725 0 0  1.493715277083147 0 0  1.513196265767424 0 0  1.532813806019548 0 0  1.552568842185085 0 0  1.572462339217603 0 0  1.592495269056204 0 0  1.612668607023916 0 0  1.632983343549927 0 0  1.653440462592259 0 0  1.674040969525434 0 0  1.694785855791528 0 0  1.715676155173469 0 0  1.73671286736412 0 0  1.757897026351256 0 0  1.779229664888713 0 0  1.800711824755784 0 0  1.82234455324737 0 0  1.84412890624001 0 0  1.866065945376083 0 0  1.888156733760833 0 0  1.910402369606354 0 0  1.93280391688052 0 0  1.955362477143487 0 0  1.978079144436244 0 0  2.000955036197599 0 0  2.023991269446432 0 0  2.047188964767926 0 0  2.0705492490968 0 0  2.094073263768322 0 0  2.117762156205791 0 0  2.141617082624289 0 0  2.16563921705895 0 0  2.189829717267639 0 0  2.214189770072521 0 0  2.238720556051706 0 0  2.263423288009975 0 0  2.288299155588418 0 0  2.313349376228164 0 0  2.338575176964319 0 0  2.363977783618623 0 0  2.389558433680938 0 0  2.415318384393194 0 0  2.441258882154933 0 0  2.467381196024248 0 0  2.493686599690135 0 0  2.520176385407638 0 0  2.546851827526312 0 0  2.573714242586076 0 0  2.600764942577301 0 0  2.628005231328753 0 0  2.655436452882501 0 0  2.683059932630583 0 0  2.710877029970518 0 0  2.73888909859219 0 0  2.767097496229523 0 0  2.79550361535459 0 0  2.824108829114479 0 0  2.852914536031111 0 0  2.881922140827726 0 0  2.911133056443728 0 0  2.940548720418847 0 0  2.970170550362583 0 0  3 0.02999999999994495 0  3 0.05999999999987042 0  3 0.089999999999783 0  3 0.119999999999701 0  3 0.149999999999619 0  3 0.179999999999692 0  3 0.2099999999997737 0  3 0.2399999999998511 0  3 0.2699999999999185 0  2.970138294777171 0.3 0  2.940375666438236 0.3 0  2.910711782853056 0.3 0  2.881146331305122 0.3 0  2.851678975030285 0.3 0  2.822309388626621 0.3 0  2.793037250095074 0.3 0  2.76386223529133 0.3 0  2.734784017903872 0.3 0  2.705802289276642 0.3 0  2.676916713794697 0.3 0  2.648126987654635 0.3 0  2.619432780406184 0.3 0  2.590833779385199 0.3 0  2.562329669847737 0.3 0  2.533920134950189 0.3 0  2.505604855727852 0.3 0  2.477383539822502 0.3 0  2.449255847639465 0.3 0  2.421221492569094 0.3 0  2.393280152486815 0.3 0  2.36543151914496 0.3 0  2.337675285481809 0.3 0  2.310011142385583 0.3 0  2.282438797441587 0.3 0  2.254957931061538 0.3 0  2.227568248063605 0.3 0  2.200269436651085 0.3 0  2.173061204949961 0.3 0  2.145943251515011 0.3 0  2.118915272469994 0.3 0  2.091976978084957 0.3 0  2.065128060700849 0.3 0  2.038368218849433 0.3 0  2.01169717777258 0.3 0  1.985114624111908 0.3 0  1.958620267850966 0.3 0  1.93221382054972 0.3 0  1.905894991850698 0.3 0  1.879663489459713 0.3 0  1.853519019126419 0.3 0  1.827461291053897 0.3 0  1.801490031354372 0.3 0  1.775604937580312 0.3 0  1.74980572560258 0.3 0  1.724092118631866 0.3 0  1.698463829173586 0.3 0  1.672920575782554 0.3 0  1.647462076974085 0.3 0  1.622088043536933 0.3 0  1.5967981978949 0.3 0  1.571592267767068 0.3 0  1.546469970305736 0.3 0  1.521431023814044 0.3 0  1.496475156230927 0.3 0  1.471602093687753 0.3 0  1.446811560490646 0.3 0  1.422103279101731 0.3 0  1.397476971708191 0.3 0  1.37293238939876 0.3 0  1.348469231419202 0.3 0  1.324087248732772 0.3 0  1.299786165921677 0.3 0  1.275565710847046 0.3 0  1.251425617644257 0.3 0  1.227365618676339 0.3 0  1.203385446174014 0.3 0  1.179484853067473 0.3 0  1.155663548773374 0.3 0  1.131921292279077 0.3 0  1.108257802159295 0.3 0  1.084672829009693 0.3 0  1.061166115303374 0.3 0  1.037737392995421 0.3 0  1.01438640299116 0.3 0  0.991112899770314 0.3 0  0.9679166155523955 0.3 0  0.944797284182564 0.3 0  0.921754678526042 0.3 0  0.8987885143602501 0.3 0  0.8758985548820624 0.3 0  0.8530845484099929 0.3 0  0.8303462351786988 0.3 0  0.8076833651172373 0.3 0  0.7850956864865304 0.3 0  0.7625829601354557 0.3 0  0.7401449314598274 0.3 0  0.717781337993959 0.3 0  0.6954919649675473 0.3 0  0.6732765357561226 0.3 0  0.6511348120768439 0.3 0  0.6290665642016573 0.3 0  0.6070715355430467 0.3 0  0.5851494825775325 0.3 0  0.5633001690203812 0.3 0  0.5415233562273221 0.3 0  0.5198187909431873 0.3 0  0.4981862401387795 0.3 0  0.4766254686134248 0.3 0  0.4551362360485234 0.3 0  0.4337182975262159 0.3 0  0.4123714223228037 0.3 0  0.3910953802377493 0.3 0  0.3698899313205595 0.3 0  0.3487548463710963 0.3 0  0.3276898864081783 0.3 0  0.3066948129116018 0.3 0  0.2857694003037476 0.3 0  0.2649134227095047 0.3 0  0.2441266417321288 0.3 0  0.2234088223399122 0.3 0  0.2027597568977288 0.3 0  0.1821792020676698 0.3 0  0.1616669305402443 0.3 0  0.1412227158799362 0.3 0  0.12084633013886 0.3 0  0.1005375673448281 0.3 0  0.08029618164595353 0.3 0  0.06012194778526769 0.3 0  0.04001466495039718 0.3 0  0.01997408913631205 0.3 0  0 0.2800000000000553 0  0 0.2600000000001105 0  0 0.2400000000001658 0  0 0.2200000000002211 0  0 0.2000000000002764 0  0 0.1800000000002244 0  0 0.1600000000001691 0  0 0.140000000000115 0  0 0.1200000000000564 0  1.139147342155451 0.01402312796110374 0  1.003846432965526 0.09424410338552042 0  0.9779237415493457 0.10303715329271 0  0.9525322729471357 0.1037883113413676 0  0.9297268847131464 0.1045730213771781 0  0.9046089814431624 0.104336569409788 0  0.877471620806838 0.1038902524152954 0  0.8484650538876116 0.1052432520737866 0  0.8159640469246969 0.1059371394421246 0  0.7886638538509052 0.1060934813339016 0  0.7587098578963086 0.1078079872398564 0  0.7267218807318911 0.1066246423921731 0  0.6933049262001144 0.1065261986562333 0  0.6579684410383846 0.1078243939978959 0  0.6214208701021879 0.1087048760815267 0  0.9941749516486179 0.1037853116611355 0  1.120978489398116 0.279674477539142 0  1.208544064048151 0.01503467720016028 0  1.277910333952869 0.01779594515292307 0  1.351715717346224 0.01850593010538557 0  1.427966398080389 0.0186283585208804 0  1.50319238505989 0.01550695005010656 0  0.5804324085735586 0.1090014561521007 0  1.005955353234479 0.07030337494537306 0  1.582478804136902 0.01728864997636526 0  0.5372897138364388 0.1092087118973372 0  1.663740716058847 0.0177784735569346 0  0.4914692535170423 0.110729061919444 0  1.747243287282295 0.01944243088977818 0  1.238974330067154 0.2790657993464123 0  1.834291106016765 0.02121111407792533 0  0.44060840912
[...]
<PointData  Scalars="pressure"> 
<DataArray  type="Float64"  Name="pressure"  format="ascii">1.2662866481561441e-01  -2.0723721447907587e-01  -2.6999184817043226e-01  -2.0678853474898931e-01  0.0000000000000000e+00  0.0000000000000000e+00  1.2663433868542412e-01  1.2070253998243126e-01  1.1487191993030982e-01  1.0913524910432702e-01  1.0349099460273525e-01  9.7937659333548185e-02  9.2473767887005648e-02  8.7097844660314963e-02  8.1808502998938895e-02  7.6604272324154815e-02  7.1483812833939536e-02  6.6445748564421245e-02  6.1488675827551277e-02  5.6611311121705074e-02  5.1812341056192666e-02  4.7090427739370638e-02  4.2444342066301717e-02  3.7872817366041138e-02  3.3374525142097801e-02  2.8948343124980049e-02  2.4592998365695860e-02  2.0307250334877326e-02  1.6090014565504848e-02  1.1940014610808632e-02  7.8561578748113144e-03  3.8372828672753908e-03  -1.1777713452661173e-04  -4.0101522707297211e-03  -7.8409287843403709e-03  -1.1611225022342827e-02  -1.5322125820585878e-02  -1.8974763738012775e-02  -2.2570146635688650e-02  -2.6109397526503295e-02  -2.9593552889160359e-02  -3.3023671304115390e-02  -3.6400840003294140e-02  -3.9726041248694971e-02  -4.3000373900191520e-02  -4.6224774552203904e-02  -4.9400368838335984e-02  -5.2528083494485345e-02  -5.5609032171901440e-02  -5.8644107234356438e-02  -6.1634358031619423e-02  -6.4580883453368779e-02  -6.7484590199504188e-02  -7.0346425587159464e-02  -7.3167367192335270e-02  -7.5948631274136369e-02  -7.8690864719057799e-02  -8.1395046411237224e-02  -8.4062796237720519e-02  -8.6694547115638398e-02  -8.9290668165507570e-02  -9.1853060543920478e-02  -9.4383065707209765e-02  -9.6880334098904647e-02  -9.9346079794550193e-02  -1.0178232801248877e-01  -1.0418930234441230e-01  -1.0656743922634929e-01  -1.0891823382816897e-01  -1.1124274960936761e-01  -1.1354154859729726e-01  -1.1581604631017385e-01  -1.1806651026378261e-01  -1.2029425107099007e-01  -1.2250023993958389e-01  -1.2468509303630150e-01  -1.2684999512288284e-01  -1.2899547970748826e-01  -1.3112307534202330e-01  -1.3323277844327661e-01  -1.3532607479442049e-01  -1.3740432438746941e-01  -1.3946777167810967e-01  -1.4151697684091297e-01  -1.4355230077215131e-01  -1.4557682964419105e-01  -1.4759016682722295e-01  -1.4959315317690627e-01  -1.5158613090325648e-01  -1.5357150093568186e-01  -1.5554884726474497e-01  -1.5751933439954433e-01  -1.5948549276272558e-01  -1.6144683375129409e-01  -1.6340284851971340e-01  -1.6536045064593066e-01  -1.6731183700424557e-01  -1.6926662122504657e-01  -1.7122205714942859e-01  -1.7317872328307293e-01  -1.7514024139049364e-01  -1.7709623831244922e-01  -1.7900622486248555e-01  -1.8151932961016864e-01  -1.8046722201047272e-01  -1.8362760733178712e-01  -1.7285455125436502e-01  -1.7944821872678887e-01  -1.8151847915352060e-01  -2.4887457820620629e-01  -2.2852284725125155e-01  -2.2098468537775209e-01  -2.1623594487265940e-01  -2.1292647266357378e-01  -2.1043928590955582e-01  -2.0852682315981105e-01  -2.0710146037145927e-01  -2.0621890635643345e-01  -2.0595710275190696e-01  -2.0640800416424168e-01  -2.0724481376974643e-01  -2.0763054750008969e-01  -2.0725483042126175e-01  -2.0631154573238303e-01  -2.0475831741186762e-01  -2.0270387410755988e-01  -2.0005679393030176e-01  -1.9687258382436676e-01  -1.9317961706704304e-01  -1.8905580069112712e-01  -1.8457689730501534e-01  -1.7982486056381364e-01  -1.7487324446716654e-01  -1.6978339266239709e-01  -1.6459005157638257e-01  -1.5930611929795641e-01  -1.5390941976513792e-01  -1.4836546619917740e-01  -1.4262400684732449e-01  -1.3662168646062392e-01  -1.3030323110617087e-01  -1.2364029074703410e-01  -1.1661948943956774e-01  -1.0925114406437304e-01  -1.0160178697192659e-01  -9.3768033310591289e-02  -8.5848586989628273e-02  -7.7969573529539066e-02  -7.0273650909799049e-02  -6.2871565472345389e-02  -5.5857388611949735e-02  -4.9294271006071061e-02  -4.3227079387064694e-02  -3.7647981337615412e-02  -3.2532266568678796e-02  -2.7825603864075975e-02  -2.3468882321940884e-02  -1.9396079937099343e-02  -1.5552292308883026e-02  -1.1900211999586541e-02  -8.4196620409423082e-03  -5.1222493986388326e-03  -2.0352368677517196e-03  8.0907070261287148e-04  3.3572424091979545e-03  5.5731113024870757e-03  7.4237203060175984e-03  8.9029765397424035e-03  1.0024913194035997e-02  1.0829465174266136e-02  1.1379769947496430e-02  1.1747295387213854e-02  1.2004936814363045e-02  1.2235086162037234e-02  1.2493067460069519e-02  1.2816059194914291e-02  1.3214642956029253e-02  1.3672700910155919e-02  1.4150087417971335e-02  1.4601019755740260e-02  1.4972057313721582e-02  1.5218049138519135e-02  1.5309025471212974e-02  1.5240323334946647e-02  1.5027473618611694e-02  1.4708530696717556e-02  1.4333111461240994e-02  1.3953831111876621e-02  1.3614012344351716e-02  1.3341997782818360e-02  1.3139618726916436e-02  1.2991896236550093e-02  1.2857203931338696e-02  1.2687475162849727e-02  1.2439152017914241e-02  1.2067624979121091e-02  1.1552332972258241e-02  1.0898341006427760e-02  1.0126631093417720e-02  9.2735491549293010e-03  8.3850874908046567e-03  7.4978839352324300e-03  6.6356214122116420e-03  5.8115171954252684e-03  4.9973315208331360e-03  4.1700671840893709e-03  3.2955803966921988e-03  2.3108482816564693e-03  1.2303931263807420e-03  0.0000000000000000e+00  0.0000000000000000e+00  0.0000000000000000e+00  0.0000000000000000e+00  0.0000000000000000e+00  0.0000000000000000e+00  0.0000000000000000e+00  0.0000000000000000e+00  0.0000000000000000e+00  1.2346792455264345e-03  2.4278649116719745e-03  3.6495064321698713e-03  4.8737918640772383e-03  6.0592937715600115e-03  7.1585303990176537e-03  8.1363810744750856e-03  8.9725930069843307e-03  9.6667779885629881e-03  1.0251518380766655e-02  1.0763593987758759e-02  1.1256533029241043e-02  1.1769575196181116e-02  1.2323489603407017e-02  1.2911641040395487e-02  1.3497395253870344e-02  1.4020934558873321e-02  1.4412925432941938e-02  1.4609074199967325e-02  1.4561820541868430e-02  1.4257913697419012e-02  1.3718018099336584e-02  1.2991817674186487e-02  1.2148423371717489e-02  1.1257465212896806e-02  1.0366819571134885e-02  9.4962015987544446e-03  8.6217633467514931e-03  7.6769486857109622e-03  6.5778199444276450e-03  5.2227951692628291e-03  3.5299666333785660e-03  1.4499910927930168e-03  -1.0197138197860808e-03  -3.8343173158453454e-03  -6.9099577769959446e-03  -1.0139891876181799e-02  -1.3421954665467334e-02  -1.6683008160292730e-02  -1.9894729050156070e-02  -2.3094906900603014e-02  -2.6359323420926603e-02  -2.9771164868104570e-02  -3.3449292125606878e-02  -3.7495619339976895e-02  -4.1949938986471244e-02  -4.6828916595481003e-02  -5.2049042954910495e-02  -5.7528831716008061e-02  -6.3155281097996119e-02  -6.8818247706377289e-02  -7.4431696202899203e-02  -7.9946501157089317e-02  -8.5368862204911744e-02  -9.0724645736011952e-02  -9.6080493491228353e-02  -1.0143226215358304e-01  -1.0690316531647502e-01  -1.1246935178134772e-01  -1.1810610521012395e-01  -1.2378906309570581e-01  -1.2939851854434775e-01  -1.3487451021143129e-01  -1.4008036461001497e-01  -1.4488710981793923e-01  -1.4921631305531680e-01  -1.5298076627339052e-01  -1.5611310126003533e-01  -1.5854943275257449e-01  -1.6023593130977437e-01  -1.6114511350978358e-01  -1.6117429897751742e-01  -1.6046684522372590e-01  -1.5896612407949046e-01  -1.5681424064141200e-01  -1.5370483963020756e-01  -1.5008708145986430e-01  -1.4582268903404166e-01  -1.4109911531510186e-01  -1.3595378810193859e-01  -1.3050713525109292e-01  -1.2477230487399184e-01  -1.1886211612754957e-01  -1.1279091574521531e-01  -1.0657982572808887e-01  -1.0028630612138109e-01  -9.3923341733802207e-02  -8.7509222879345525e-02  -8.1053957700058091e-02  -7.4576826577694696e-02  -6.8084660386573848e-02  -6.1585317305088247e-02  -5.5083114671249704e-02  -4.8584861210650761e-02  -4.2092177083333564e-02  -3.5609950839126547e-02  -2.9140003190630596e-02  -2.2683022721999457e-02  -1.6241341731527616e-02  -9.8163544040979871e-03  -3.4085574748877459e-03  2.9816243021099625e-03  9.3529260385290438e-03  1.5705175594758074e-02  2.2038142171053578e-02  2.8351542536655800e-02  3.4645148074378095e-02  4.0918664045011488e-02  4.7172206558326109e-02  5.3405600639832886e-02  5.9618788269790793e-02  6.5811771808589298e-02  7.1984534839839021e-02  7.8137110041216665e-02  8.4269515388299701e-02  9.0381745658595691e-02  9.6473874602843401e-02  1.0254592903256948e-01  1.0859795314459846e-01  1.1462999767511266e-01  1.2064211239861687e-01  1.2663432378846254e-01  1.2663408941657708e-01  1.2663351137495871e-01  1.2663260215211719e-01  1.2663150213501750e-01  1.2663040054853067e-01  1.2662949450010946e-01  1.2662891301512888e-01  1.2662868093533747e-01  -1.9498599382987319e-01  -2.3424486885394757e-01  -1.8638180421914072e-01  -1.7220879398640379e-01  -1.6253963446321829e-01  -1.5263049716574226e-01  -1.4256673666536970e-01  -1.3235472713750768e-01  -1.2136924879552503e-01  -1.1241447395388465e-01  -1.0280308708289865e-01  -9.2711597508358917e-02  -8.2315195177519257e-02  -7.1435819637199374e-02  -6.0268974057745797e-02  -1.9960189120003660e-01  -1.6011808224690810e-01  -1.7725319869364589e-01  -1.5694620416665939e-01  -1.3370334600960232e-01  -1.0531212354975254e-01  -7.4617116090316640e-02  -4.7816351328443307e-02  -2.1229792535043787e-01  -4.6647682507596294e-02  -3.4764584322663918e-02  -2.6050381113725003e-02  -2.0943542608668951e-02  -1.0641394648528098e-02  -1.4651734448839226e-01  1.8038265799240351e-03  -5.6330816441521499e-03  -1.1477119022556952e-01  9.2636342902381093e-03  -2.0306463540633068e-01  -1.5938974156313335e-01  9.4030445045625941e-03  1.1728187921833527e-02  -8.2167875013325120e-02  1.2846940085125474e-02  2.6668875686499942e-02  -6.0457574766324927e-02  1.4708752602290683e-02  -3.1997414626592849e-02  4.4426982370918001e-02  -1.5170440992022111e-01  1.5125013475282586e-02  -2.1577731616054887e-02  -1.3867167703812644e-01  1.3739305736164210e-02  -1.2180871440354051e-01  -8.6427235811938445e-03  6.4398134479415073e-02  7.9243007298361035e-02  9.0681463524598893e-05  -1.3154640634842737e-01  -9.8085591165115865e-02  1.2858717731179879e-02  -4.3825196010342640e-02  1.2259588456396379e-02  -1.0383302863131785e-01  -1.7787725841720015e-01  7.0872166305685474e-03  -7.7855368241255440e-02  9.7946308428097303e-03  1.0552253972077352e-02  9.5453708025005871e-02  -5.8621600421685675e-02  1.3229089967151390e-02  7.9366418526965257e-03  -3.8449859009144195e-02  5.3667508109941945e-03  1.4536950843627366e-02  -1.3258835055375869e-02  1.3130044674640332e-02  1.8749007082152658e-02  1.1405371760659219e-02  3.8378808840448031e-02  5.6512312124937847e-02  9.8940291022668117e-03  7.5832899402809417e-03  8.7898325720821777e-02  8.8199716048252671e-04  1.2164549768014052e-01  -2.0728727090583371e-01  4.1956295506411822e-03  1.0557196033877281e-01  -2.1893551339253364e-01  -2.0625640417055632e-01  -1.5683615477938950e-01  -9.0644604698903175e-02  -2.5909588115834260e-02  -1.8669792344272829e-01  -5.6462330623491784e-04  1.0630283021193701e-01  5.4259701562566980e-02  -7.1459728672314787e-02  3.6113280299783140e-02  6.9149460972687912e-02  -1.5191020609629366e-02  4.3554389862381108e-03  3.6948967395770004e-03  1.8257821533828066e-02  1.1539747343564723e-02  1.4174327312418456e-02  1.3165483962477487e-02  1.6495396627558994e-03  1.4499513304733327e-02  1.5233074062182297e-02  1.3775990784876844e-02  1.2202917664250879e-02  1.0949768673501403e-02  -1.3624993104814414e-02  6.2192787123537610e-03  -4.0039781852124296e-03  -1.8111315521559430e-02  -3.5470221375254914e-02  -2.7898511175961118e-02  -5.9760164269249905e-02  -9.0224060307632234e-02  -1.2031028417385944e-01  -1.4576066392039674e-01  1.0084130976449575e-03  -1.6710657118131955e-01  -4.1366337598911458e-02  -5.4073070476426767e-02  1.2122567948326746e-01  -6.6353309413572578e-02  -7.7463550257004049e-02  -8.8374116755238055e-02  -9.8258460457291974e-02  -1.0772138072359079e-01  -1.1696532822779215e-01  -1.2801374580472746e-01  -1.3849416730283462e-01  -1.4864293966134942e-01  -1.5874255311987248e-01  -1.6839310879684860e-01  -1.8044591567683968e-01  8.6374771053937484e-04  1.2175500820250319e-01  -2.0697859791845624e-01  1.2236350774490801e-01  1.0507706753007944e-03  1.7755603147133229e-03  1.1756017011009375e-01  -2.0685468155625372e-01  -2.0657468946105709e-01  -2.0583394817645764e-01  -2.0663962133021002e-01  -2.0591814502293337e-01  -2.0716260833523581e-01  -2.0633061851457804e-01  -2.0782892583660373e-01  -2.0684294649280188e-01  -2.0841103334005395e-01  -2.0717547762454686e-01  -2.0856824271849642e-01  -2.0707322130626304e-01  -2.0817831450042726e-01  -2.0637058854531379e-01  -2.0703303452465793e-01  -2.0493972906321956e-01  -2.0510278552525305e-01  -2.0262081814278229e-01  -2.0690925518676423e-01  -2.0421829223970114e-01  -2.0589817390530843e-01  -2.0208435287109142e-01  -2.0347597281624857e-01  -2.0214525872139577e-01  -1.9935025045632584e-01  -1.9856461206081716e-01  -1.9956409562336513e-01  -1.9857985742124387e-01  -1.9531073459467474e-01  -1.9517956015884380e-01  -1.9078560234629416e-01  -1.9059105231488638e-01  -1.8584047076707261e-01  -1.8515276933386321e-01  -1.8033263165352720e-01  -1.7938925015163013e-01  -1.7463814874974620e-01  -1.7339995029414954e-01  -1.6877730683198497e-01  -1.6748836166096032e-01  -1.6298548922422293e-01  -1.6174406152766543e-01  -1.5737764676962820e-01  -1.5620044348227943e-01  -1.5194475512287978e-01  -1.5083402335812285e-01  -1.4657845168645012e-01  -1.4548334698098170e-01  -1.4113063504293757e-01  -1.3995391357308867e-01  -1.3543655787802858e-01  -1.3408677512302697e-01  -1.2944696540968703e-01  -1.2769598015346192e-01  -1.2305728121051455e-01  -1.2072326890485532e-01  -1.1605041693532626e-01  -1.1315951902076905e-01  -1.0848435369932430e-01  -1.0505556677371355e-01  -1.0081928002624076e-01  -9.6640600940741964e-02  -9.3111002980157204e-02  -1.8957921292356616e-01  -8.8202935722692402e-02  -8.5498274592231860e-02  -7.9954520773157844e-02  -7.7868938144963332e-02  -2.0971356685226950e-01  -7.2015008304481723e-02  -7.0753849286557341e-02  -6.4631281382878575e-02  -6.4445924446620936e-02  -5.7957106317385036e-02  -5.8654735807839489e-02  -5.1909897667103140e-02  -5.3203694782615538e-02  -4.6437441860607068e-02  -4.8214835118817176e-02  -4.1491860177255785e-02  -1.9377986524023713e-01  -1.9443397982833860e-01  -1.9983332814327784e-01  -1.9412918038299881e-01  -4.3900481112568522e-02  -3.7011368233448985e-02  -3.9031756017302965e-02  -3.2835614526813744e-02  -3.4928965588916117e-02  -2.8879556759775424e-02  -1.7459391879174044e-01  -1.9913020931045053e-01  -1.9284895506932540e-01  -1.8780503586261749e-01  -1.8633124126396958e-01  -1.9048228092158478e-01  -1.8390408996681343e-01  -1.8711156828773651e-01  -1.8078578930330019e-01  -1.8290111669826931e-01  -1.7719710407326580e-01  -1.7805497932757869e-01  -1.7330889692007678e-01  -1.7398157772617306e-01  -1.6942560803442044e-01  -1.6815484736745681e-01  -1.6475342752521904e-01  -1.6585243279237410e-01  -1.6122310991525601e-01  -1.6156714623118504e-01  -1.5757875895603740e-01  -1.5756624344196266e-01  -1.5398069351133736e-01  -1.5359538473645692e-01  -1.5044804327714442e-01  -1.5013831511380091e-01  -1.4681902014579074e-01  -1.4683495630915605e-01  -1.4339112972170448e-01  -1.4329099129428782e-01  -1.3978368197204213e-01  -1.3985534157649934e-01  -1.3627308585354375e-01  -1.3608420286176567e-01  -1.3281319893211194e-01  -1.3249302729685744e-01  -1.2930059227050170e-01  -1.2890523659111180e-01  -1.2577239898168882e-01  -1.5985538878417924e-01  -1.2530509282115704e-01  -1.2216747717112562e-01  -1.2260658058455126e-01  -1.1904944893171258e-01  -1.1852291432649405e-01  -1.1543644654938869e-01  -1.8130573978628731e-01  -3.1251323041675501e-02  -2.5174760216527939e-02  -1.1497168928978328e-01  -1.1188378323427432e-01  -1.1926259288758466e-01  -1.3298481855926694e-01  -2.7578736817151926e-02  -2.1589266412866209e-02  -2.3867839342778020e-02  -1.8149513728803406e-02  -2.0680583047595891e-02  -1.4925254257392159e-02  -1.1152226689198845e-01  -1.0833551835591597e-01  -1.0909208971665223e-01  -1.0516010533204241e-01  -1.0448801066408532e-01  -1.0128689662418898e-01  -1.0188649183287098e-01  -9.8092512457340228e-02  -9.7488243218676218e-02  -9.4322004610670460e-02  -1.7601463225344238e-02  -1.1923172323504453e-02  -1.4962796334254439e-02  -9.1968535159081197e-03  -1.5288375520531378e-01  -9.3748360346334644e-02  -9.0480437566857363e-02  -1.2465907120635807e-02  -6.7311459444401008e-03  -9.1056619736538086e-02  -8.7203885444310958e-02  -8.6635665580035826e-02  -8.3365987223796567e-02  -1.0044558045447233e-02  -4.4868056837516273e-03  -7.8287620307008598e-03  -2.4009244070227632e-03  -1.3034178333841992e-01  -1.9342835061041683e-01  -1.6163004014541338e-01  -1.7804044051122875e-01  -5.6660523734995884e-03  -6.7760509703559068e-04  -3.5861749369643873e-03  9.4784981357854347e-04  -1.5229440030204095e-03  2.4650027172191846e-03  -8.2878968765495262e-02  -7.9511501801379295e-02  -8.0002525482644540e-02  -7.6101648072998851e-02  -7.5509230789246387e-02  -7.2058780525914384e-02  -7.2625586421106267e-02  -6.8605873335411099e-02  -6.8081457799215692e-02  -6.4626257662222519e-02  -1.3221859761159069e-01  -1.5298241188406900e-01  3.9514983327277865e-04  3.8631387459564662e-03  2.2936600948421874e-03  5.1707718089524114e-03  -1.1121201967496798e-01  -2.0545651707788337e-01  -6.4250089587867640e-02  -6.0699095017184013e-02  -6.1017218557427907e-02  -5.7023619844535862e-02  -5.6670701791210400e-02  -5.2984404356327161e-02  -5.3229910960617702e-02  -4.9055511911357971e-02  -4.8944639709294566e-02  -4.5099254657357250e-02  -2.0419187846030298e-01  3.9706713521323166e-03  6.3771453307605776e-03  5.5347503857127280e-03  7.5178040620515110e-03  -8.3211005377248876e-02  -1.8366836921454541e-01  -2.0859202886433387e-01  -1.1793170656898055e-01  -1.9252792942624097e-01  -1.8699519780124768e-01  -1.8563797537300331e-01  6.7785602777817875e-03  8.5158332610278473e-03  7.8704074445635642e-03  9.3996915780151982e-03  8.7385496212647202e-03  1.0179017762816062e-02  -1.7972148484723968e-01  -1.7851751303135277e-01  -4.5282770028872543e-02  -4.1163566655511657e-02  -4.1053291274396754e-02  -3.7062974834601012e-02  -3.7178868125157874e-02  -3.3016839871324269e-02  -3.2834879489740593e-02  -2.8844968508264988e-02  9.4621503255859617e-03  1.0845777492756557e-02  -1.5994031107963719e-01  -9.6946380251877268e-02  -9.3267001657595452e-02  1.0107771121194013e-02  1.1445205481404788e-02  1.0514200458565456e-02  1.1911157502129720e-02  -1.1765679295217660e-01  -2.8659304537189692e-02  -2.4644271581063429e-02  -2.4444164645540851e-02  -2.0423138847020503e-02  -6.5318404741349298e-02  -1.4382190983380935e-01  -2.0522536416017111e-02  -1.6297838058584004e-02  -1.6205829314440440e-02  -1.1996614489472231e-02  -1.1936570729100052e-02  -7.7003351187102760e-03  -7.8169602965226914e-03  -3.3396544399282233e-03  -4.1133003941943837e-02  -3.5941750492857259e-03  9.8093751393140663e-04  -4.5473935718556652e-02  1.1165962959856108e-02  1.2391088866703301e-02  1.1709982827108559e-02  1.2789615900554965e-02  -9.8526696374823721e-03  -8.2743207539296801e-02  -1.6472291418160534e-02  -6.5157276677999851e-02  1.0126502482756330e-02  -2.3637864408375040e-02  -6.7673432965913188e-02  -3.0105336274725548e-02  1.0911564084749219e-03  5.4288074709448759e-03  5.4019227760101441e-03  9.8942597394922876e-03  8.4967654210763265e-03  -3.1287517700123411e-02  9.3535210348163881e-04  -1.3217686333033590e-01  6.7878388956101625e-03  1.1638137060745341e-02  -1.0180364258388301e-01  1.2326381723797419e-02  1.3148028110590324e-02  1.2895452931542598e-02  1.3458676203041768e-02  1.3443618268590566e-02  1.3693508122869883e-02  -1.7188009018831346e-01  4.9513164198882100e-03  -3.4823719272855402e-03  1.2803609899657242e-02  -6.9018694850175893e-02  -8.7673390657183145e-02  -1.4981022086033183e-01  -1.5240426611269500e-01  -1.4925529548547006e-01  1.3511365088004899e-02  1.3771555075602305e-02  -1.7319095900773523e-01  -1.718605