<?xml version="1.0"?>
<VTKFile type="UnstructuredGrid"  version="0.1"  >
<UnstructuredGrid>
<Piece  NumberOfPoints="2945" NumberOfCells="5525">
<Points>
<DataArray  type="Float64"  NumberOfComponents="3"  format="ascii">0 0.1 0  0.95 0.1 0  1 0.1 0  1 0 0  1.5 0 0  3 0 0  3 0.3 0  0 0.3 0  0.0197424558707114 0.1 0  0.03915669042224804 0.1 0  0.05824816022699029 0.1 0  0.07702223050332387 0.1 0  0.09548417327144595 0.1 0  0.1136391897583987 0.1 0  0.1314923700144587 0.1 0  0.1490487330862866 0.1 0  0.1663132263225292 0.1 0  0.1832906857273058 0.1 0  0.1999858946008978 0.1 0  0.216403545770297 0.1 0  0.2325482404045023 0.1 0  0.2484245348165176 0.1 0  0.2640368740372501 0.1 0  0.2793896589642241 0.1 0  0.2944872056237027 0.1 0  0.3093337469555254 0.1 0  0.3239334613687816 0.1 0  0.3382904528528069 0.1 0  0.3524087553122972 0.1 0  0.3662923366391824 0.1 0  0.3799451014768399 0.1 0  0.393370886920506 0.1 0  0.4065734648871676 0.1 0  0.419556546320114 0.1 0  0.4323237821343415 0.1 0  0.4448787573056132 0.1 0  0.4572250047274954 0.1 0  0.4693659926332938 0.1 0  0.4813051343276231 0.1 0  0.4930457849308193 0.1 0  0.5045912455271677 0.1 0  0.5159447600209797 0.1 0  0.5271095174127136 0.1 0  0.5380886618453393 0.1 0  0.5488852725463512 0.1 0  0.5595023868312478 0.1 0  0.5699429904313016 0.1 0  0.5802100167387366 0.1 0  0.5903063508274641 0.1 0  0.6002348329443006 0.1 0  0.6099982499579832 0.1 0  0.6195993483501782 0.1 0  0.6290408246013842 0.1 0  0.6383253354321616 0.1 0  0.6474554910757137 0.1 0  0.6564338522440513 0.1 0  0.6652629482939147 0.1 0  0.6739452579188948 0.1 0  0.6824832240165607 0.1 0  0.6908792415022103 0.1 0  0.6991356755989045 0.1 0  0.7072548438546967 0.1 0  0.7152390281534421 0.1 0  0.7230904746196039 0.1 0  0.7308113906759266 0.1 0  0.7384039435269326 0.1 0  0.7458702676581656 0.1 0  0.7532124631720397 0.1 0  0.7604325921167397 0.1 0  0.7675326856666862 0.1 0  0.7745147374421916 0.1 0  0.7813807123989068 0.1 0  0.7881325374362798 0.1 0  0.7947721131625659 0.1 0  0.8013013031866276 0.1 0  0.8077219449067021 0.1 0  0.8140358419942376 0.1 0  0.8202447685401882 0.1 0  0.8263504700910924 0.1 0  0.8323546643163114 0.1 0  0.8382590362474568 0.1 0  0.8440652473522128 0.1 0  0.8497749272799842 0.1 0  0.8553896837646281 0.1 0  0.8609110933285474 0.1 0  0.866340708855119 0.1 0  0.8716800550492284 0.1 0  0.8769306339052932 0.1 0  0.8820939206038667 0.1 0  0.8871713655604893 0.1 0  0.8921643975475726 0.1 0  0.8970744196575535 0.1 0  0.9019028106970642 0.1 0  0.9066509291259979 0.1 0  0.9113201098984042 0.1 0  0.9159116634553873 0.1 0  0.9204268818729691 0.1 0  0.9248670319440222 0.1 0  0.9292333656649013 0.1 0  0.9335271075812669 0.1 0  0.9377494640511216 0.1 0  0.941901623463222 0.1 0  0.9459847526686701 0.1 0  0.9538461538461205 0.1 0  0.9576923076922409 0.1 0  0.9615384615384381 0.1 0  0.9653846153846337 0.1 0  0.9692307692307542 0.1 0  0.9730769230768747 0.1 0  0.9769230769229952 0.1 0  0.9807692307691157 0.1 0  0.9846153846152361 0.1 0  0.9884615384614317 0.1 0  0.9923076923076356 0.1 0  0.9961538461538395 0.1 0  1 0.09591793123533533 0  1 0.09133596463859224 0  1 0.08619288104391448 0  1 0.08041996484521211 0  1 0.07394008421771697 0  1 0.06666666567302955 0  1 0.05850252932209174 0  1 0.04933859630113544 0  1 0.03905242821848202 0  1 0.02750659386753798 0  1 0.01454683679239736 0  1.015625 0 0  1.03125 0 0  1.046875 0 0  1.0625 0 0  1.078125 0 0  1.09375 0 0  1.109375 0 0  1.125 0 0  1.140625 0 0  1.15625 0 0  1.171875 0 0  1.1875 0 0  1.203125 0 0  1.21875 0 0  1.234375 0 0  1.25 0 0  1.265625 0 0  1.28125 0 0  1.296875 0 0  1.3125 0 0  1.328125 0 0  1.34375 0 0  1.359375 0 0  1.375 0 0  1.390625 0 0  1.40625 0 0  1.421875 0 0  1.4375 0 0  1.453125 0 0  1.46875 0 0  1.484375 0 0  1.515920751924515 0 0  1.531989369316721 0 0  1.54820720925872 0 0  1.564575665560501 0 0  1.581096138674279 0 0  1.597770029901263 0 0  1.614598783332311 0 0  1.631583831055205 0 0  1.64872661129721 0 0  1.666028606716533 0 0  1.683491276608443 0 0  1.701116134125304 0 0  1.718904673324128 0 0  1.736858414799339 0 0  1.754978895814663 0 0  1.773267661782904 0 0  1.791726281103402 0 0  1.810356325314689 0 0  1.8291593848892 0 0  1.848137076690385 0 0  1.867291007717254 0 0  1.886622833871288 0 0  1.90613418642363 0 0  1.925826753299799 0 0  1.945702199101513 0 0  1.96576223584749 0 0  1.986008569283268 0 0  2.006442931928877 0 0  2.02706707547783 0 0  2.047882750887917 0 0  2.06889175187935 0 0  2.090095860038271 0 0  2.111496891648636 0 0  2.133096679109554 0 0  2.154897066851056 0 0  2.176899916687499 0 0  2.199107102752146 0 0  2.22152053937028 0 0  2.244142122958061 0 0  2.266973806444078 0 0  2.290017523268154 0 0  2.313275249499252 0 0  2.336748971745516 0 0  2.360440702338606 0 0  2.384352453384031 0 0  2.408486280477412 0 0  2.432844240041185 0 0  2.457428414757088 0 0  2.482240901796653 0 0  2.507283830121838 0 0  2.532559332080812 0 0  2.558069568787417 0 0  2.583816724966441 0 0  2.60980299606584 0 0  2.636030600971886 0 0  2.662501790984011 0 0  2.689218818279327 0 0  2.716183964547616 0 0  2.743399548861297 0 0  2.77086788244719 0 0  2.798591312896326 0 0  2.826572223178268 0 0  2.854812990138617 0 0  2.883316031690714 0 0  2.912083780657189 0 0  2.941118704633482 0 0  2.970423276998917 0 0  3 0.02999999999994495 0  3 0.05999999999987042 0  3 0.089999999999783 0  3 0.119999999999701 0  3 0.149999999999619 0  3 0.179999999999692 0  3 0.2099999999997737 0  3 0.2399999999998511 0  3 0.2699999999999185 0  2.970138294777171 0.3 0  2.940375666438236 0.3 0  2.910711782853056 0.3 0  2.881146331305122 0.3 0  2.851678975030285 0.3 0  2.822309388626621 0.3 0  2.793037250095074 0.3 0  2.76386223529133 0.3 0  2.734784017903872 0.3 0  2.705802289276642 0.3 0  2.676916713794697 0.3 0  2.648126987654635 0.3 0  2.619432780406184 0.3 0  2.590833779385199 0.3 0  2.562329669847737 0.3 0  2.533920134950189 0.3 0  2.505604855727852 0.3 0  2.477383539822502 0.3 0  2.449255847639465 0.3 0  2.421221492569094 0.3 0  2.393280152486815 0.3 0  2.36543151914496 0.3 0  2.337675285481809 0.3 0  2.310011142385583 0.3 0  2.282438797441587 0.3 0  2.254957931061538 0.3 0  2.227568248063605 0.3 0  2.200269436651085 0.3 0  2.173061204949961 0.3 0  2.145943251515011 0.3 0  2.118915272469994 0.3 0  2.091976978084957 0.3 0  2.065128060700849 0.3 0  2.038368218849433 0.3 0  2.01169717777258 0.3 0  1.985114624111908 0.3 0  1.958620267850966 0.3 0  1.93221382054972 0.3 0  1.905894991850698 0.3 0  1.879663489459713 0.3 0  1.853519019126419 0.3 0  1.827461291053897 0.3 0  1.801490031354372 0.3 0  1.775604937580312 0.3 0  1.74980572560258 0.3 0  1.724092118631866 0.3 0  1.698463829173586 0.3 0  1.672920575782554 0.3 0  1.647462076974085 0.3 0  1.622088043536933 0.3 0  1.5967981978949 0.3 0  1.571592267767068 0.3 0  1.546469970305736 0.3 0  1.521431023814044 0.3 0  1.496475156230927 0.3 0  1.471602093687753 0.3 0  1.446811560490646 0.3 0  1.422103279101731 0.3 0  1.397476971708191 0.3 0  1.37293238939876 0.3 0  1.348469231419202 0.3 0  1.324087248732772 0.3 0  1.299786165921677 0.3 0  1.275565710847046 0.3 0  1.251425617644257 0.3 0  1.227365618676339 0.3 0  1.203385446174014 0.3 0  1.179484853067473 0.3 0  1.155663548773374 0.3 0  1.131921292279077 0.3 0  1.108257802159295 0.3 0  1.084672829009693 0.3 0  1.061166115303374 0.3 0  1.037737392995421 0.3 0  1.01438640299116 0.3 0  0.991112899770314 0.3 0  0.9679166155523955 0.3 0  0.944797284182564 0.3 0  0.921754678526042 0.3 0  0.8987885143602501 0.3 0  0.8758985548820624 0.3 0  0.8530845484099929 0.3 0  0.8303462351786988 0.3 0  0.8076833651172373 0.3 0  0.7850956864865304 0.3 0  0.7625829601354557 0.3 0  0.7401449314598274 0.3 0  0.717781337993959 0.3 0  0.6954919649675473 0.3 0  0.6732765357561226 0.3 0  0.6511348120768439 0.3 0  0.6290665642016573 0.3 0  0.6070715355430467 0.3 0  0.5851494825775325 0.3 0  0.5633001690203812 0.3 0  0.5415233562273221 0.3 0  0.5198187909431873 0.3 0  0.4981862401387795 0.3 0  0.4766254686134248 0.3 0  0.4551362360485234 0.3 0  0.4337182975262159 0.3 0  0.4123714223228037 0.3 0  0.3910953802377493 0.3 0  0.3698899313205595 0.3 0  0.3487548463710963 0.3 0  0.3276898864081783 0.3 0  0.3066948129116018 0.3 0  0.2857694003037476 0.3 0  0.2649134227095047 0.3 0  0.2441266417321288 0.3 0  0.2234088223399122 0.3 0  0.2027597568977288 0.3 0  0.1821792020676698 0.3 0  0.1616669305402443 0.3 0  0.1412227158799362 0.3 0  0.12084633013886 0.3 0  0.1005375673448281 0.3 0  0.08029618164595353 0.3 0  0.06012194778526769 0.3 0  0.04001466495039718 0.3 0  0.01997408913631205 0.3 0  0 0.2800000000000553 0  0 0.2600000000001105 0  0 0.2400000000001658 0  0 0.2200000000002211 0  0 0.2000000000002764 0  0 0.1800000000002244 0  0 0.1600000000001691 0  0 0.140000000000115 0  0 0.1200000000000564 0  1.133778471000506 0.01219539743990768 0  1.003741919047894 0.09354664821474232 0  0.9559421147150347 0.1035858189992458 0  0.9313792160389045 0.1037365237938103 0  0.9788461538460573 0.1033060829993555 0  0.9090102438250753 0.1037269304984056 0  0.8846304212778655 0.1043349840723655 0  0.8581503885465881 0.104741932962923 0  0.8286416220145676 0.1052762843984476 0  0.7982741772533339 0.1053575624517407 0  0.7708789559342691 0.1060290465840416 0  0.741870349714261 0.1078220590984258 0  0.7112469360040695 0.10685702926368 0  0.6783901541417233 0.1079959711853378 0  0.642884733623195 0.1075561996086514 0  0.6056235042367955 0.1085956039602543 0  0.5647007593786924 0.1083187281660325 0  1.1953125 0.01353164693413185 0  1.258148737344733 0.01268350115427042 0  1.320087046516829 0.01426312402966312 0  1.383495130751951 0.01432665475473204 0  1.4453125 0.01315663539200989 0  1.50886768312388 0.01395488397722681 0  0.9942307692307371 0.103330866937657 0  1.119309781943483 0.2802014914557878 0  1.572831235329714 0.01707210522554785 0  1.637611634353954 0.01209340368483431 0  1.709661292005932 0.0146870244871893 0  1.006561890631532 0.07068055446055937 0  1.784793444007901 0.01499371444634687 0  1.855459587353174 0.0
[...]
<PointData  Scalars="pressure"> 
<DataArray  type="Float64"  Name="pressure"  format="ascii">4.9313742069472137e-02  -9.6901835850860596e-01  6.7220144089025699e-02  1.7291703735234226e-01  1.6283874614912883e-01  0.0000000000000000e+00  0.0000000000000000e+00  4.9408947771527531e-02  4.3391094696987348e-02  3.7565859338320906e-02  3.1836096003577070e-02  2.6200040469566102e-02  2.0655755686269803e-02  1.5201727564083773e-02  9.8361125521756083e-03  4.5570174718408034e-03  -6.3684479718549580e-04  -5.7478805528062534e-03  -1.0777719371121130e-02  -1.5727771125939021e-02  -2.0600326275538944e-02  -2.5396926389649750e-02  -3.0119841114863755e-02  -3.4770699080420783e-02  -3.9351998146201085e-02  -4.3865238210100715e-02  -4.8313134917453690e-02  -5.2697225729408013e-02  -5.7020922117689166e-02  -6.1285772380394656e-02  -6.5492614761351223e-02  -6.9647139690565948e-02  -7.3750102091115821e-02  -7.7805100249986936e-02  -8.1813731494146127e-02  -8.5779946954949324e-02  -8.9706855288488388e-02  -9.3597123503354501e-02  -9.7454573530612418e-02  -1.0128003348410436e-01  -1.0508183124699758e-01  -1.0886095950488761e-01  -1.1262098208958797e-01  -1.1636616036041923e-01  -1.2010179892118666e-01  -1.2383079618541770e-01  -1.2755861799329901e-01  -1.3128918835073741e-01  -1.3502889695053824e-01  -1.3878178610358771e-01  -1.4255320100027086e-01  -1.4634818622013995e-01  -1.5017374055091121e-01  -1.5403422075115636e-01  -1.5793817162919266e-01  -1.6188999107161584e-01  -1.6589708269993139e-01  -1.6996885572061274e-01  -1.7410934076366577e-01  -1.7832777208272779e-01  -1.8263732020841189e-01  -1.8703345071821048e-01  -1.9153621804251467e-01  -1.9615340035348408e-01  -2.0089058336462454e-01  -2.0577221492339315e-01  -2.1079350450612436e-01  -2.1596148295033499e-01  -2.2130695087662616e-01  -2.2683605846843025e-01  -2.3257088145552024e-01  -2.3851069803485858e-01  -2.4466731483073964e-01  -2.5108774329319455e-01  -2.5777174688101573e-01  -2.6474504920424613e-01  -2.7203167135118800e-01  -2.7965595859785503e-01  -2.8764294772587828e-01  -2.9603214918869736e-01  -3.0484254899886032e-01  -3.1411556940883240e-01  -3.2391046418385316e-01  -3.3426878195445875e-01  -3.4523165736454281e-01  -3.5688101801022731e-01  -3.6928694488710373e-01  -3.8251318743897161e-01  -3.9665908384678655e-01  -4.1191583838103996e-01  -4.2834064755069556e-01  -4.4613489925984917e-01  -4.6547732413434373e-01  -4.8672140813243653e-01  -5.1012559033541416e-01  -5.3608229789483308e-01  -5.6543103387736926e-01  -5.9879979040338760e-01  -6.3721812839576575e-01  -6.8257553716570796e-01  -7.3720361330255479e-01  -8.0522258970557836e-01  -9.0492709002809146e-01  -1.3759490610527496e+00  -1.5204113739623646e+00  -1.4485915206730604e+00  -1.3046960284689060e+00  -1.1200989741753589e+00  -9.3180416907549091e-01  -7.2193323134214527e-01  -5.1934000807103375e-01  -3.0439700753058069e-01  -1.0361613295292822e-01  6.7961762141254614e-02  2.6359456910003498e-01  -6.8589648060154787e-02  6.5495618396750055e-02  9.3376826156219589e-02  1.1654121805778772e-01  1.3156933110692737e-01  1.4314488013955129e-01  1.5270340928709988e-01  1.6054252978859085e-01  1.6680471507543512e-01  1.7126753192691427e-01  1.7330902679803784e-01  1.7251234199341331e-01  1.7568626899684570e-01  1.8230722512633379e-01  1.9122854796484567e-01  2.0095373951420251e-01  2.0933358465571256e-01  2.1461550875533661e-01  2.1571312355158390e-01  2.1221519121599830e-01  2.0431628773322275e-01  1.9232859518274165e-01  1.7693274257922134e-01  1.5890933058814788e-01  1.3928472510048934e-01  1.1960927222813682e-01  1.0153006685599605e-01  8.7055742693511851e-02  7.7810027431624185e-02  7.4701856654428703e-02  7.8375606165460118e-02  8.7438759538653710e-02  1.0051906699909162e-01  1.1621751747650359e-01  1.3227190435568809e-01  1.4743570523974034e-01  1.5972541618321895e-01  1.6898776501475490e-01  1.7428779037588402e-01  1.7590016968302827e-01  1.7410330655560582e-01  1.6951439310110283e-01  1.5460284311805636e-01  1.4553051917630835e-01  1.3623156272766371e-01  1.2692265342575040e-01  1.1793186175671420e-01  1.0940463691132570e-01  1.0119406068678352e-01  9.3675922105609682e-02  8.6186524352294402e-02  7.9025810271855082e-02  7.2093293963967853e-02  6.5381695462318326e-02  5.8882134632891089e-02  5.2736413720439433e-02  4.7085365023685634e-02  4.2153283945427313e-02  3.8165659577316838e-02  3.5504586715299671e-02  3.4087641631656403e-02  3.4390026860741982e-02  3.6478454103499612e-02  4.0436650650502122e-02  4.6338585839344013e-02  5.4064229866659423e-02  6.3339496225446851e-02  7.3841305129961177e-02  8.4783206555207671e-02  9.5792144124750567e-02  1.0609539416579733e-01  1.1505231302893965e-01  1.2224762373213383e-01  1.2733384551426477e-01  1.3013540141646457e-01  1.3068564920864650e-01  1.2909716495002421e-01  1.2563510087887161e-01  1.2057977879836936e-01  1.1428234169382889e-01  1.0701383058343247e-01  9.9043009881628757e-02  9.0423427060622938e-02  8.0983464414700196e-02  7.0404713752307307e-02  5.8521914184314835e-02  4.5507621350098212e-02  3.2103904796698883e-02  1.9501056898363019e-02  9.1977094597283076e-03  2.6505755098482058e-03  1.4034515308925710e-03  5.3153892253830996e-03  1.4006671628405590e-02  2.6464177985771092e-02  4.0093243177351801e-02  5.2811786148418867e-02  6.3028484630173701e-02  6.8925304194955697e-02  7.0538461875279526e-02  6.8317504384284161e-02  6.3029109789409205e-02  5.5694671744959380e-02  4.6985391525308395e-02  3.8078669922783803e-02  2.9282882548198243e-02  2.1095823255077913e-02  1.3504337814237523e-02  6.0547881235201084e-03  0.0000000000000000e+00  0.0000000000000000e+00  0.0000000000000000e+00  0.0000000000000000e+00  0.0000000000000000e+00  0.0000000000000000e+00  0.0000000000000000e+00  0.0000000000000000e+00  0.0000000000000000e+00  4.9340936230090225e-03  6.0906684287523813e-03  5.2349637445990461e-03  3.0694971182576940e-03  4.5524905004928017e-04  -1.6052641636282007e-03  -2.2170285439224498e-03  -7.0296697678585258e-04  3.2684553886105469e-03  9.6660190082741709e-03  1.8173806037963959e-02  2.8331249912454053e-02  3.9623447236580026e-02  5.1591672174761183e-02  6.3703160833183808e-02  7.5375579156606212e-02  8.5983652930258225e-02  9.4628737047316544e-02  1.0037927229879956e-01  1.0221689938538973e-01  9.9429008168766903e-02  9.2007384560020777e-02  8.0930015705508576e-02  6.8026210239223076e-02  5.5711592938076794e-02  4.6535627574046383e-02  4.2612996810490973e-02  4.5035482327897974e-02  5.3688597800983361e-02  6.7150322459047146e-02  8.3086764608003294e-02  9.9114793295742826e-02  1.1384453562083202e-01  1.2614881318653060e-01  1.3597022942370646e-01  1.4418758769247897e-01  1.5059180592309421e-01  1.5536602653713083e-01  1.5792863858692563e-01  1.5773924852198379e-01  1.5363750703271212e-01  1.4473786954029286e-01  1.3062298686996529e-01  1.1120343743377292e-01  8.7441289767650823e-02  6.1149321890455452e-02  3.4870854924624640e-02  1.1619316003267903e-02  -6.1572996388374939e-03  -1.6504971346297422e-02  -1.8498590289291246e-02  -1.2531978674154075e-02  4.3763167156047537e-04  1.6737730734371452e-02  3.5330017472149318e-02  5.3519646707135382e-02  6.9707264221567214e-02  8.2685813983300091e-02  9.1747768474474467e-02  9.6396700302354241e-02  9.6479411425746384e-02  9.1908029624647100e-02  8.3164716249572543e-02  7.1034508095843760e-02  5.6419910225272499e-02  4.0414204117443800e-02  2.4056761468971320e-02  8.4890392845271695e-03  -5.4777138514689131e-03  -1.7383650054789958e-02  -2.7239411081408205e-02  -3.5495268097489208e-02  -4.3042731675677189e-02  -5.0599960146489327e-02  -5.8848325672676435e-02  -6.8083834363634382e-02  -7.8217253944400031e-02  -8.8885877307109118e-02  -9.9887080571964201e-02  -1.1019418806000286e-01  -1.1941772531274096e-01  -1.2720188631258428e-01  -1.3353961778021550e-01  -1.3823406822129322e-01  -1.4118648635171760e-01  -1.4255276319706453e-01  -1.4267942378186693e-01  -1.4166314994451815e-01  -1.3953255568642484e-01  -1.3667026505195023e-01  -1.3307570625664997e-01  -1.2895866847072096e-01  -1.2439196901948213e-01  -1.1944150037593312e-01  -1.1418635813156182e-01  -1.0871995441216507e-01  -1.0305938192576498e-01  -9.7249354807958641e-02  -9.1326289903580354e-02  -8.5326092790170102e-02  -7.9264337285858785e-02  -7.3144557686874057e-02  -6.6994877502867131e-02  -6.0819481465341385e-02  -5.4631592732150631e-02  -4.8433165343857450e-02  -4.2230991107639962e-02  -3.6034403562079230e-02  -2.9839306995541395e-02  -2.3655815558594390e-02  -1.7481217129658107e-02  -1.1319104038627986e-02  -5.1718009517242600e-03  9.6151646355347874e-04  7.0785613497316357e-03  1.3179030624345585e-02  1.9262376519772625e-02  2.5328130298843118e-02  3.1375990427849568e-02  3.7405645341845706e-02  4.3416729956330384e-02  4.9408679383770623e-02  4.9404744478464560e-02  4.9394959872588962e-02  4.9379799724455789e-02  4.9361367771993063e-02  4.9342965148797296e-02  4.9327748447949356e-02  4.9318038762677867e-02  4.9314086060342134e-02  2.1331178497020684e-01  6.1296274048553749e-02  -1.3913402325045143e+00  -6.6719080332679137e-01  -5.2396386693753438e-01  -5.0162444460468947e-01  -4.0617480316233751e-01  -3.4097446475343057e-01  -2.9170669868429594e-01  -2.5525101456421306e-01  -2.3003376627220073e-01  -2.0849068473131960e-01  -1.8953801753181021e-01  -1.7232371580514577e-01  -1.5611337875681358e-01  -1.4095781888666475e-01  -1.2574522862950047e-01  1.6941165407694589e-01  9.4480237966267006e-02  7.9718011114643578e-02  1.3735977341832964e-01  1.7340362191537689e-01  1.5850009732171444e-01  1.5330839515831826e-01  -2.2455015287782674e-02  1.2442687010669434e-01  9.2431793768452605e-02  6.3384642824178675e-02  1.3734704855636831e-01  4.0313688099207670e-02  3.5248990817387207e-02  -1.1090110315974384e-01  5.7861903214737352e-02  3.1373359147262678e-02  8.7341590029259189e-02  1.0172221402854835e-01  8.8243729320769057e-02  -9.5328969941176372e-02  1.1790489897306499e-02  1.2832984550378393e-01  -8.0516322849520233e-02  2.0434243872204880e-01  1.2377976333371211e-01  -3.2382066063525375e-04  -4.5309984974843169e-02  -6.3870028570156612e-02  9.5395591583610398e-02  1.3683829410035708e-01  -4.5794778392633462e-02  1.5757890949262596e-01  5.3323724649286086e-02  1.4715155506726485e-01  -8.0236051604683375e-02  4.9961656413703721e-03  -2.7761575873767749e-02  1.2079533033089904e-01  -1.1291341888856472e-01  -1.3554460478005384e-01  7.5900965230375275e-02  1.7604063691248992e-02  -7.7651722403252266e-03  7.0777902200983124e-03  7.2018127826750600e-02  5.7158800257011783e-02  6.9863623784611126e-02  -1.4191737299602492e-01  4.2290465945172211e-02  7.3322402806142009e-02  -1.3460831748874755e-01  -8.6330809766014660e-01  -1.1259350573597908e+00  -1.2197439726298950e-01  1.0079804888368536e-01  5.2510588339923614e-02  -1.0091231877054015e-01  8.1867113670371791e-02  -7.0230843436280388e-02  4.6439197194736527e-02  -3.9128905460904674e-02  1.4090774370841752e-02  -2.0667204000326407e-02  1.6090844072786152e-02  -1.9590697199330441e-03  -2.2313055862774886e-03  4.4310135811260455e-02  3.2628458583676104e-03  2.3617228761262165e-02  1.6342226215025638e-01  5.5795598719458547e-04  2.5159684735347451e-02  1.1152683425841169e-01  1.8538855087430323e-01  -6.0580177919847468e-02  5.8097140922827584e-04  -1.4137190190431545e-01  -1.1137067258847635e-01  -8.8600464116911970e-02  -5.6996228320432794e-02  -1.6081101469037566e-02  6.3063912349700213e-02  9.6750128266070740e-02  6.3039962417996476e-02  -1.8166376473047894e-02  -3.6983716487818966e-02  4.8678229764424708e-02  9.8466771136748385e-02  -5.4393603911423900e-02  1.1575358946661822e-03  2.8255682484429473e-02  2.6000977483197560e-02  7.6637269841516892e-02  -7.2025911171907583e-02  1.1136868337523624e-01  4.4310970837222963e-02  1.3016225112385008e-01  -8.7660777083883937e-02  1.1690331776452990e-01  7.9528547146513973e-02  1.4198024634675938e-01  4.2457260465971161e-02  -1.0335848236337394e-01  3.5093103460690347e-02  5.0793839076668262e-02  7.7312945371181829e-02  -1.1841080323679776e-01  1.0715012005391882e-01  3.8458291858667055e-03  -1.3323062616368680e-01  -1.4841486929066938e-01  -1.6439502402183948e-01  -1.8020195404533107e-01  -1.9913176324817849e-01  -2.1901349961577574e-01  -2.4269607866907961e-01  -2.7653581805485289e-01  1.9809751632934455e-01  -3.2001123943307430e-01  -3.7794077730365133e-01  -4.5844880457045034e-01  1.3113899036473742e-01  -5.8172997862807951e-01  1.0469788857545044e-01  7.4972743720510909e-02  1.6038791070120612e-01  1.7102038818275017e-01  4.4677133218033419e-02  -1.2958471450333228e-01  3.3964540859903105e-03  3.4662104521744806e-02  4.8706311137771295e-03  1.7431288354029215e-01  5.1602944164186176e-03  4.4884136054025997e-02  1.7854451282244027e-01  1.7972519941054479e-01  1.8659136834343262e-01  1.8005192236943973e-01  1.8757275704686863e-01  1.8050421754800389e-01  1.8961858781708013e-01  1.8210925608410058e-01  1.9248021220655764e-01  1.8517710867036252e-01  1.9565926802555159e-01  1.8641215900799835e-01  1.9558380845019549e-01  1.8183578163799716e-01  1.8868073102057281e-01  1.6989154198556949e-01  1.7379904278925445e-01  1.5007912622837391e-01  1.5148115468409201e-01  1.2319981613860503e-01  1.2361138441660216e-01  1.1953576510684140e-01  1.5678857870175156e-01  1.2335881494448829e-01  9.2208695548502501e-02  8.8208693035447067e-02  1.5203056549764532e-01  1.2039874320489716e-01  1.4831908563500859e-01  1.1613571811784029e-01  1.4163633539313114e-01  1.1156098382784323e-01  1.3275037106961177e-01  1.0650547529806581e-01  1.2181799644857326e-01  9.7215688604863529e-02  1.0949508843310851e-01  9.4761962835444385e-02  9.9380406302159607e-02  9.2170802414473230e-02  9.2013419375080313e-02  9.1881082823065036e-02  8.8351959048832807e-02  9.4187972009788692e-02  8.8540622740988006e-02  9.8330746689743592e-02  9.2199790534430601e-02  1.0394249092291435e-01  9.7782207020452747e-02  1.0906906600710083e-01  1.0425145768035887e-01  6.0101326520001018e-02  5.1892075386660928e-02  1.1231903228671304e-01  1.0726932071497419e-01  1.1238370103963888e-01  1.0842294278011348e-01  1.0854435405338723e-01  1.0456024073762535e-01  1.0036969448867097e-01  9.6347612768345678e-02  8.8141712148771173e-02  8.3708917303471866e-02  8.8265630674591838e-02  7.2468209260489691e-02  6.7925245174420931e-02  5.4270464275977870e-02  5.0199628017483608e-02  3.4658057632684147e-02  3.1877767329829568e-02  2.8901985186487650e-02  1.9228575191990862e-02  1.7316232477563559e-01  1.4904678959464285e-02  1.4320029036604105e-02  7.2595059097622011e-02  -3.2515897713181066e-03  -9.4105590102114126e-04  -1.8554198079342641e-02  -1.2839749156184275e-02  -2.9205978131624788e-02  -1.9959968323784966e-02  8.7277312253157158e-02  -3.4950637816299354e-02  -2.1950828893902288e-02  -3.3628318794244431e-02  -1.7930867756445763e-02  -2.6410485004842995e-02  -9.1236282001162395e-03  2.0267282046599680e-01  8.6054726182993813e-02  -1.3523500739458670e-02  3.8671638370172063e-03  9.8493241016285116e-04  -9.8337304675615005e-03  8.1491615068792177e-03  1.0013869153995769e-01  2.9153318855743267e-03  1.9643802434680349e-02  2.2956442678582562e-02  3.6392046493428622e-02  4.3856273497537068e-02  5.1963633083750932e-02  3.8024295942108481e-02  2.3400195684868289e-02  2.5097102911459455e-03  8.5725907218377501e-02  6.3823142156587104e-02  6.6109047441354027e-02  5.3798658315483569e-02  6.1323291212101401e-02  7.7941456749845400e-02  6.7401574139569473e-02  8.7379899793245827e-02  7.2617108018637314e-02  9.5064518225994918e-02  7.7883608204932758e-02  1.0135444033161854e-01  8.2881850928878426e-02  1.0647520093208057e-01  8.8229262503498149e-02  1.1138573500416056e-01  9.3850102984615977e-02  1.1513228059461131e-01  9.8713536438783139e-02  1.1826467556976948e-01  1.0411966668437846e-01  1.2056566291323949e-01  1.0868275561411800e-01  1.2196378854608975e-01  1.1182540227944333e-01  1.0745858110820748e-01  1.1583928000130467e-01  1.2112021245761802e-01  1.1297879610233154e-01  1.1787715880565895e-01  1.1151604982588313e-01  1.6033005230166486e-01  1.1205332715603603e-01  1.0739847174363798e-01  7.9325401012729682e-02  9.6462032928437774e-02  -2.2834467613123487e-02  -3.7767353818754401e-02  -3.3017666794402885e-02  -5.4495184298647560e-02  -6.1317358720945153e-02  -8.0882264927937070e-02  -9.7325576771638014e-02  -1.1336225450494453e-01  -1.4260784319810696e-01  -1.4939715852824043e-01  -1.9236627483059152e-01  -1.8613197293220768e-01  -2.4229156986627062e-01  -2.2309939402316034e-01  -2.9776128578430944e-01  -2.6115219942468115e-01  -3.2312617045435510e-01  -2.7837091064507857e-01  -3.4145938530352538e-01  -3.0226229487938278e-01  -3.5186025525514653e-01  -3.1082787052427829e-01  -3.5270618502213152e-01  -3.1287579227013951e-01  -3.4738460699752666e-01  -3.1039627016179439e-01  -3.3874475620771477e-01  -3.0528210524845356e-01  -2.6666798119522206e-01  -2.7624685615543754e-01  -2.7391023254151503e-01  -2.9837442312839113e-01  -2.7018161652074918e-01  -2.9014709401333549e-01  -2.6515416216680698e-01  -2.8146192030238398e-01  -2.5939344955777338e-01  -2.4506064888844262e-01  -2.7614200262964739e-01  -2.5334941743841749e-01  -2.6444515899748783e-01  -2.4639550162096346e-01  -2.3350948513283165e-01  -2.2890102946174964e-01  -2.3958846440448270e-01  -2.2409599248474482e-01  -2.3219897943981344e-01  -2.1878437883383875e-01  -6.8787098355956464e-02  -2.2507242189396098e-01  -2.1348332126274361e-01  -2.0509469600535840e-01  -2.0132740034629507e-01  -2.0840060945468544e-01  -1.9732446691637689e-01  -2.0321401495725094e-01  -1.9307969165718300e-01  -3.1292675984487406e-01  -2.1006633953183929e-01  -1.8209665512606288e-01  -3.8647518131040309e-01  -1.9865693344649663e-01  -1.8878459931233893e-01  -1.8317500275458745e-01  -1.7960892424509936e-01  -1.8423936672227309e-01  -1.7587642174016666e-01  -1.7954804738858712e-01  -1.7188305349813887e-01  -1.6780693885722012e-01  -1.6460838486197671e-01  -1.6778356403663369e-01  -1.6105596296176314e-01  -2.1526463907185744e-01  -1.6351459756984196e-01  -1.5731882103218270e-01  -3.9827038548635701e-01  -1.1424216726053232e-01  -1.9224883093362477e-01  -3.7484334948906040e-01  -1.5920674806971757e-01  -1.5328126042660287e-01  -1.5145207929360499e-01  -1.4749379475192828e-01  -1.4930438172559971e-01  -1.4368292021236900e-01  -1.4177150385781573e-01  -1.3826326802236572e-01  -1.3974867640376168e-01  -1.3459740204338247e-01  -3.0482882436010617e-01  -1.3570799973609815e-01  -1.3072009886396055e-01  -1.6035820525505537e-01  -2.4388226231915705e-01  1.0708426331171177e-01  -2.8188437390885562e-01  -1.2958277994476206e-01  -1.2588269940299759e-01  -1.2673346651816669e-01  -1.2206150160660789e-01  1.0351272838743340e-01  1.0049644583872126e-01  9.2389459148946834e-02  9.1381680794236864e-02  7.9428222706458870e-02  8.0980452341886722e-02  -1.2249199888165578e-01  -1.1802354835761489e-01  2.2401329269102550e-02  -1.1746991206489946e-01  -1.1357381404910885e-01  -1.1404130027906807e-01  -1.0960762037091415e-01  1.7275793276978690e-01  -5.5465042105698026e-02  -2.1365026636778750e-01  6.3888831157335013e-02  6.6065539257972844e-02  7.0802206449350522e-02  4.9668336887071625e-02  1.0028141338684828e-01  8.8475865017994842e-02  8.0933989665936193e-02  6.2158555978843157e-02  7.4563251820784798e-02  5.6392117925636191e-02  7.0052091874062569e-02  5.3755336272358380e-02  6.7282461822446613e-02  5.4226016074720093e-02  6.5955859679330583e-02  5.6634115223912283e-02  6.4765578255263426e-02  5.9701072909879437e-02  6.2551388199875615e-02  6.1902004320524069e-02  5.8014724603314111e-02  6.1805773009713724e-02  5.0868509674190279e-02  5.8673132333805292e-02  4.1633022112666798e-02  5.3566392000374240e-02  3.2480732078706824e-02  4.7949336697484010e-02  2.4430474870218214e-02  -1.0986274208050935e-01  -1.0551964917139760e-01  -1.0505276620546007e-01  -1.0116712208420256e-01  -1.0130805059145533e-01  -9.7055919098398558e-02  4.2950066341493932e-02  1.9690896315483108e-02  3.7975202650892166e-02  1.7986560281930089e-02  3.9782643701908829e-02  2.0