<?xml version="1.0"?>
<VTKFile type="UnstructuredGrid"  version="0.1"  >
<UnstructuredGrid>
<Piece  NumberOfPoints="2945" NumberOfCells="5525">
<Points>
<DataArray  type="Float64"  NumberOfComponents="3"  format="ascii">0 0.1 0  0.95 0.1 0  1 0.1 0  1 0 0  1.5 0 0  3 0 0  3 0.3 0  0 0.3 0  0.0197424558707114 0.1 0  0.03915669042224804 0.1 0  0.05824816022699029 0.1 0  0.07702223050332387 0.1 0  0.09548417327144595 0.1 0  0.1136391897583987 0.1 0  0.1314923700144587 0.1 0  0.1490487330862866 0.1 0  0.1663132263225292 0.1 0  0.1832906857273058 0.1 0  0.1999858946008978 0.1 0  0.216403545770297 0.1 0  0.2325482404045023 0.1 0  0.2484245348165176 0.1 0  0.2640368740372501 0.1 0  0.2793896589642241 0.1 0  0.2944872056237027 0.1 0  0.3093337469555254 0.1 0  0.3239334613687816 0.1 0  0.3382904528528069 0.1 0  0.3524087553122972 0.1 0  0.3662923366391824 0.1 0  0.3799451014768399 0.1 0  0.393370886920506 0.1 0  0.4065734648871676 0.1 0  0.419556546320114 0.1 0  0.4323237821343415 0.1 0  0.4448787573056132 0.1 0  0.4572250047274954 0.1 0  0.4693659926332938 0.1 0  0.4813051343276231 0.1 0  0.4930457849308193 0.1 0  0.5045912455271677 0.1 0  0.5159447600209797 0.1 0  0.5271095174127136 0.1 0  0.5380886618453393 0.1 0  0.5488852725463512 0.1 0  0.5595023868312478 0.1 0  0.5699429904313016 0.1 0  0.5802100167387366 0.1 0  0.5903063508274641 0.1 0  0.6002348329443006 0.1 0  0.6099982499579832 0.1 0  0.6195993483501782 0.1 0  0.6290408246013842 0.1 0  0.6383253354321616 0.1 0  0.6474554910757137 0.1 0  0.6564338522440513 0.1 0  0.6652629482939147 0.1 0  0.6739452579188948 0.1 0  0.6824832240165607 0.1 0  0.6908792415022103 0.1 0  0.6991356755989045 0.1 0  0.7072548438546967 0.1 0  0.7152390281534421 0.1 0  0.7230904746196039 0.1 0  0.7308113906759266 0.1 0  0.7384039435269326 0.1 0  0.7458702676581656 0.1 0  0.7532124631720397 0.1 0  0.7604325921167397 0.1 0  0.7675326856666862 0.1 0  0.7745147374421916 0.1 0  0.7813807123989068 0.1 0  0.7881325374362798 0.1 0  0.7947721131625659 0.1 0  0.8013013031866276 0.1 0  0.8077219449067021 0.1 0  0.8140358419942376 0.1 0  0.8202447685401882 0.1 0  0.8263504700910924 0.1 0  0.8323546643163114 0.1 0  0.8382590362474568 0.1 0  0.8440652473522128 0.1 0  0.8497749272799842 0.1 0  0.8553896837646281 0.1 0  0.8609110933285474 0.1 0  0.866340708855119 0.1 0  0.8716800550492284 0.1 0  0.8769306339052932 0.1 0  0.8820939206038667 0.1 0  0.8871713655604893 0.1 0  0.8921643975475726 0.1 0  0.8970744196575535 0.1 0  0.9019028106970642 0.1 0  0.9066509291259979 0.1 0  0.9113201098984042 0.1 0  0.9159116634553873 0.1 0  0.9204268818729691 0.1 0  0.9248670319440222 0.1 0  0.9292333656649013 0.1 0  0.9335271075812669 0.1 0  0.9377494640511216 0.1 0  0.941901623463222 0.1 0  0.9459847526686701 0.1 0  0.9538461538461205 0.1 0  0.9576923076922409 0.1 0  0.9615384615384381 0.1 0  0.9653846153846337 0.1 0  0.9692307692307542 0.1 0  0.9730769230768747 0.1 0  0.9769230769229952 0.1 0  0.9807692307691157 0.1 0  0.9846153846152361 0.1 0  0.9884615384614317 0.1 0  0.9923076923076356 0.1 0  0.9961538461538395 0.1 0  1 0.09591793123533533 0  1 0.09133596463859224 0  1 0.08619288104391448 0  1 0.08041996484521211 0  1 0.07394008421771697 0  1 0.06666666567302955 0  1 0.05850252932209174 0  1 0.04933859630113544 0  1 0.03905242821848202 0  1 0.02750659386753798 0  1 0.01454683679239736 0  1.015625 0 0  1.03125 0 0  1.046875 0 0  1.0625 0 0  1.078125 0 0  1.09375 0 0  1.109375 0 0  1.125 0 0  1.140625 0 0  1.15625 0 0  1.171875 0 0  1.1875 0 0  1.203125 0 0  1.21875 0 0  1.234375 0 0  1.25 0 0  1.265625 0 0  1.28125 0 0  1.296875 0 0  1.3125 0 0  1.328125 0 0  1.34375 0 0  1.359375 0 0  1.375 0 0  1.390625 0 0  1.40625 0 0  1.421875 0 0  1.4375 0 0  1.453125 0 0  1.46875 0 0  1.484375 0 0  1.515920751924515 0 0  1.531989369316721 0 0  1.54820720925872 0 0  1.564575665560501 0 0  1.581096138674279 0 0  1.597770029901263 0 0  1.614598783332311 0 0  1.631583831055205 0 0  1.64872661129721 0 0  1.666028606716533 0 0  1.683491276608443 0 0  1.701116134125304 0 0  1.718904673324128 0 0  1.736858414799339 0 0  1.754978895814663 0 0  1.773267661782904 0 0  1.791726281103402 0 0  1.810356325314689 0 0  1.8291593848892 0 0  1.848137076690385 0 0  1.867291007717254 0 0  1.886622833871288 0 0  1.90613418642363 0 0  1.925826753299799 0 0  1.945702199101513 0 0  1.96576223584749 0 0  1.986008569283268 0 0  2.006442931928877 0 0  2.02706707547783 0 0  2.047882750887917 0 0  2.06889175187935 0 0  2.090095860038271 0 0  2.111496891648636 0 0  2.133096679109554 0 0  2.154897066851056 0 0  2.176899916687499 0 0  2.199107102752146 0 0  2.22152053937028 0 0  2.244142122958061 0 0  2.266973806444078 0 0  2.290017523268154 0 0  2.313275249499252 0 0  2.336748971745516 0 0  2.360440702338606 0 0  2.384352453384031 0 0  2.408486280477412 0 0  2.432844240041185 0 0  2.457428414757088 0 0  2.482240901796653 0 0  2.507283830121838 0 0  2.532559332080812 0 0  2.558069568787417 0 0  2.583816724966441 0 0  2.60980299606584 0 0  2.636030600971886 0 0  2.662501790984011 0 0  2.689218818279327 0 0  2.716183964547616 0 0  2.743399548861297 0 0  2.77086788244719 0 0  2.798591312896326 0 0  2.826572223178268 0 0  2.854812990138617 0 0  2.883316031690714 0 0  2.912083780657189 0 0  2.941118704633482 0 0  2.970423276998917 0 0  3 0.02999999999994495 0  3 0.05999999999987042 0  3 0.089999999999783 0  3 0.119999999999701 0  3 0.149999999999619 0  3 0.179999999999692 0  3 0.2099999999997737 0  3 0.2399999999998511 0  3 0.2699999999999185 0  2.970138294777171 0.3 0  2.940375666438236 0.3 0  2.910711782853056 0.3 0  2.881146331305122 0.3 0  2.851678975030285 0.3 0  2.822309388626621 0.3 0  2.793037250095074 0.3 0  2.76386223529133 0.3 0  2.734784017903872 0.3 0  2.705802289276642 0.3 0  2.676916713794697 0.3 0  2.648126987654635 0.3 0  2.619432780406184 0.3 0  2.590833779385199 0.3 0  2.562329669847737 0.3 0  2.533920134950189 0.3 0  2.505604855727852 0.3 0  2.477383539822502 0.3 0  2.449255847639465 0.3 0  2.421221492569094 0.3 0  2.393280152486815 0.3 0  2.36543151914496 0.3 0  2.337675285481809 0.3 0  2.310011142385583 0.3 0  2.282438797441587 0.3 0  2.254957931061538 0.3 0  2.227568248063605 0.3 0  2.200269436651085 0.3 0  2.173061204949961 0.3 0  2.145943251515011 0.3 0  2.118915272469994 0.3 0  2.091976978084957 0.3 0  2.065128060700849 0.3 0  2.038368218849433 0.3 0  2.01169717777258 0.3 0  1.985114624111908 0.3 0  1.958620267850966 0.3 0  1.93221382054972 0.3 0  1.905894991850698 0.3 0  1.879663489459713 0.3 0  1.853519019126419 0.3 0  1.827461291053897 0.3 0  1.801490031354372 0.3 0  1.775604937580312 0.3 0  1.74980572560258 0.3 0  1.724092118631866 0.3 0  1.698463829173586 0.3 0  1.672920575782554 0.3 0  1.647462076974085 0.3 0  1.622088043536933 0.3 0  1.5967981978949 0.3 0  1.571592267767068 0.3 0  1.546469970305736 0.3 0  1.521431023814044 0.3 0  1.496475156230927 0.3 0  1.471602093687753 0.3 0  1.446811560490646 0.3 0  1.422103279101731 0.3 0  1.397476971708191 0.3 0  1.37293238939876 0.3 0  1.348469231419202 0.3 0  1.324087248732772 0.3 0  1.299786165921677 0.3 0  1.275565710847046 0.3 0  1.251425617644257 0.3 0  1.227365618676339 0.3 0  1.203385446174014 0.3 0  1.179484853067473 0.3 0  1.155663548773374 0.3 0  1.131921292279077 0.3 0  1.108257802159295 0.3 0  1.084672829009693 0.3 0  1.061166115303374 0.3 0  1.037737392995421 0.3 0  1.01438640299116 0.3 0  0.991112899770314 0.3 0  0.9679166155523955 0.3 0  0.944797284182564 0.3 0  0.921754678526042 0.3 0  0.8987885143602501 0.3 0  0.8758985548820624 0.3 0  0.8530845484099929 0.3 0  0.8303462351786988 0.3 0  0.8076833651172373 0.3 0  0.7850956864865304 0.3 0  0.7625829601354557 0.3 0  0.7401449314598274 0.3 0  0.717781337993959 0.3 0  0.6954919649675473 0.3 0  0.6732765357561226 0.3 0  0.6511348120768439 0.3 0  0.6290665642016573 0.3 0  0.6070715355430467 0.3 0  0.5851494825775325 0.3 0  0.5633001690203812 0.3 0  0.5415233562273221 0.3 0  0.5198187909431873 0.3 0  0.4981862401387795 0.3 0  0.4766254686134248 0.3 0  0.4551362360485234 0.3 0  0.4337182975262159 0.3 0  0.4123714223228037 0.3 0  0.3910953802377493 0.3 0  0.3698899313205595 0.3 0  0.3487548463710963 0.3 0  0.3276898864081783 0.3 0  0.3066948129116018 0.3 0  0.2857694003037476 0.3 0  0.2649134227095047 0.3 0  0.2441266417321288 0.3 0  0.2234088223399122 0.3 0  0.2027597568977288 0.3 0  0.1821792020676698 0.3 0  0.1616669305402443 0.3 0  0.1412227158799362 0.3 0  0.12084633013886 0.3 0  0.1005375673448281 0.3 0  0.08029618164595353 0.3 0  0.06012194778526769 0.3 0  0.04001466495039718 0.3 0  0.01997408913631205 0.3 0  0 0.2800000000000553 0  0 0.2600000000001105 0  0 0.2400000000001658 0  0 0.2200000000002211 0  0 0.2000000000002764 0  0 0.1800000000002244 0  0 0.1600000000001691 0  0 0.140000000000115 0  0 0.1200000000000564 0  1.133778471000506 0.01219539743990768 0  1.003741919047894 0.09354664821474232 0  0.9559421147150347 0.1035858189992458 0  0.9313792160389045 0.1037365237938103 0  0.9788461538460573 0.1033060829993555 0  0.9090102438250753 0.1037269304984056 0  0.8846304212778655 0.1043349840723655 0  0.8581503885465881 0.104741932962923 0  0.8286416220145676 0.1052762843984476 0  0.7982741772533339 0.1053575624517407 0  0.7708789559342691 0.1060290465840416 0  0.741870349714261 0.1078220590984258 0  0.7112469360040695 0.10685702926368 0  0.6783901541417233 0.1079959711853378 0  0.642884733623195 0.1075561996086514 0  0.6056235042367955 0.1085956039602543 0  0.5647007593786924 0.1083187281660325 0  1.1953125 0.01353164693413185 0  1.258148737344733 0.01268350115427042 0  1.320087046516829 0.01426312402966312 0  1.383495130751951 0.01432665475473204 0  1.4453125 0.01315663539200989 0  1.50886768312388 0.01395488397722681 0  0.9942307692307371 0.103330866937657 0  1.119309781943483 0.2802014914557878 0  1.572831235329714 0.01707210522554785 0  1.637611634353954 0.01209340368483431 0  1.709661292005932 0.0146870244871893 0  1.006561890631532 0.07068055446055937 0  1.784793444007901 0.01499371444634687 0  1.855459587353174 0.0
[...]
<PointData  Scalars="pressure"> 
<DataArray  type="Float64"  Name="pressure"  format="ascii">-6.9434118890462504e-01  -1.3555360772910214e+00  -7.1311344849879554e-01  -7.1936546507077936e-01  -4.8319714956802329e-01  0.0000000000000000e+00  0.0000000000000000e+00  -6.9426201905115537e-01  -7.0026384171604350e-01  -7.0608883331185746e-01  -7.1181801718511040e-01  -7.1745308591919343e-01  -7.2299585355255314e-01  -7.2844782225890814e-01  -7.3381074141450697e-01  -7.3908628665630816e-01  -7.4427589555732776e-01  -7.4938158116952980e-01  -7.5440483278343384e-01  -7.5934715003243336e-01  -7.6421042760297786e-01  -7.6899615116806386e-01  -7.7370623550015416e-01  -7.7834219556826301e-01  -7.8290607134880796e-01  -7.8739928975399887e-01  -7.9182399776772017e-01  -7.9618164605046438e-01  -8.0047479336320337e-01  -8.0470481566779695e-01  -8.0887288260081558e-01  -8.1298276768171707e-01  -8.1703551809336439e-01  -8.2103371821586713e-01  -8.2497889545580316e-01  -8.2887411564835212e-01  -8.3272128661761435e-01  -8.3652317562093248e-01  -8.4028201192691709e-01  -8.4399934833500723e-01  -8.4768048601680568e-01  -8.5132671751145050e-01  -8.5494074725632641e-01  -8.5852577761770799e-01  -8.6208570441712185e-01  -8.6562286329848914e-01  -8.6914126180510065e-01  -8.7264403115538280e-01  -8.7613576976045004e-01  -8.7961962016269390e-01  -8.8309978902219832e-01  -8.8657994462964651e-01  -8.9006518910496824e-01  -8.9355922047368119e-01  -8.9706803621089803e-01  -9.0059516337287215e-01  -9.0414621655982208e-01  -9.0772716869545089e-01  -9.1134365072690426e-01  -9.1499805195131245e-01  -9.1870466547555751e-01  -9.2245755732350854e-01  -9.2627180905755080e-01  -9.3015252571943441e-01  -9.3410441485722973e-01  -9.3814224037681271e-01  -9.4226904407516077e-01  -9.4648119917191853e-01  -9.5080270113817811e-01  -9.5524086780269624e-01  -9.5980604112468204e-01  -9.6450255338285429e-01  -9.6932896304040628e-01  -9.7432316366883165e-01  -9.7948155205522347e-01  -9.8482072803328913e-01  -9.9035489872739091e-01  -9.9609621744727894e-01  -1.0020606580732501e+00  -1.0082711557455029e+00  -1.0147396577181578e+00  -1.0214839418455615e+00  -1.0285383541502962e+00  -1.0359289537408178e+00  -1.0436707856555838e+00  -1.0518071623063043e+00  -1.0603822321907088e+00  -1.0694188366973083e+00  -1.0789610926989741e+00  -1.0891158316036367e+00  -1.0999015662453668e+00  -1.1114137043543881e+00  -1.1237294411538141e+00  -1.1370220851791679e+00  -1.1513928668243596e+00  -1.1670158443859810e+00  -1.1842448389216740e+00  -1.2033454531101186e+00  -1.2247115980432539e+00  -1.2491006296812979e+00  -1.2773488158985709e+00  -1.3101891156685535e+00  -1.3603883075847183e+00  -1.5451142914078684e+00  -1.6431733771839583e+00  -1.6369059198793163e+00  -1.5800085646241191e+00  -1.4889015740424139e+00  -1.3851361069224455e+00  -1.2705556985405149e+00  -1.1566850481974857e+00  -1.0401601249507226e+00  -9.2903232625113807e-01  -8.3056518776016208e-01  -7.2202255175633168e-01  -7.6979331490469327e-01  -7.1698792709523373e-01  -7.0757156565362100e-01  -7.0154290147143972e-01  -7.0027998408105407e-01  -7.0136888543077403e-01  -7.0351122094041829e-01  -7.0633198330008229e-01  -7.0991409790956506e-01  -7.1437370376679576e-01  -7.1862082328739441e-01  -7.2028096961148347e-01  -7.2627693181574515e-01  -7.3600585171579191e-01  -7.4959700943706231e-01  -7.6627564711435492e-01  -7.8378088638072807e-01  -7.9612138233227525e-01  -7.9655969476981181e-01  -7.7896981822027944e-01  -7.4001263158347730e-01  -6.8129805876732086e-01  -6.1024910838512725e-01  -5.3726217086996653e-01  -4.7121653827854848e-01  -4.1851556937083373e-01  -3.8176121145723468e-01  -3.6032620781112029e-01  -3.5182273436035821e-01  -3.5315880835857305e-01  -3.6146455633096336e-01  -3.7444055850335745e-01  -3.8915338157652984e-01  -4.0498121680272775e-01  -4.2014019769425481e-01  -4.3408489751882307e-01  -4.4633929595144312e-01  -4.5691316069894083e-01  -4.6549851263835706e-01  -4.7234631097817148e-01  -4.7744233259042790e-01  -4.8100898419029886e-01  -4.8416058911662824e-01  -4.8398260426476825e-01  -4.8270134829540873e-01  -4.8040225006136217e-01  -4.7709895186724582e-01  -4.7289050860322390e-01  -4.6777143474832955e-01  -4.6191692215090435e-01  -4.5538376458702523e-01  -4.4841180146084053e-01  -4.4112569180898964e-01  -4.3345674098574744e-01  -4.2515129726752465e-01  -4.1582548835998095e-01  -4.0499304639058681e-01  -3.9226712623871429e-01  -3.7750274536799050e-01  -3.6086166914721207e-01  -3.4247568758493957e-01  -3.2386523234359510e-01  -3.0524971125589995e-01  -2.8796270118969253e-01  -2.7290066218100378e-01  -2.6042493452587828e-01  -2.5097412927198220e-01  -2.4405244370651663e-01  -2.3990722569278361e-01  -2.3774207088438187e-01  -2.3708063593225509e-01  -2.3743733603440695e-01  -2.3833931456172239e-01  -2.3929874573277315e-01  -2.4019244734264245e-01  -2.4128003888772334e-01  -2.4300743607564243e-01  -2.4580828997082405e-01  -2.4977479105132613e-01  -2.5441402694377829e-01  -2.5864541075998743e-01  -2.6083411993260852e-01  -2.5917969636900667e-01  -2.5211017776008293e-01  -2.3876068290841956e-01  -2.1931997296894432e-01  -1.9508887515842768e-01  -1.6838948441521939e-01  -1.4179036133954845e-01  -1.1774232631866517e-01  -9.8056727736262950e-02  -8.3459684132481893e-02  -7.3237100140051539e-02  -6.7055953414533159e-02  -6.3379993194558268e-02  -6.1408183757241594e-02  -6.0127291156178625e-02  -5.8856152191034759e-02  -5.7307342660605665e-02  -5.5063186149673510e-02  -5.2408279353068160e-02  -4.9606495342601781e-02  -4.7158079524138551e-02  -4.5278984137330801e-02  -4.3745450688545275e-02  -4.1702424625739455e-02  -3.7521920052083158e-02  -2.9745210661207729e-02  -1.6226686851286441e-02  0.0000000000000000e+00  0.0000000000000000e+00  0.0000000000000000e+00  0.0000000000000000e+00  0.0000000000000000e+00  0.0000000000000000e+00  0.0000000000000000e+00  0.0000000000000000e+00  0.0000000000000000e+00  1.5971145815398982e-03  1.9531514454146312e-03  -3.0073329271425244e-04  -5.2224755787944211e-03  -1.3024187024178853e-02  -2.3545198152451707e-02  -3.6437089718655280e-02  -5.1013528738850865e-02  -6.6330628597225258e-02  -8.1349057677482864e-02  -9.5087970939046862e-02  -1.0678610743604765e-01  -1.1608214317611790e-01  -1.2306616269447235e-01  -1.2816871370489277e-01  -1.3196186303221019e-01  -1.3490308988697569e-01  -1.3717710454584955e-01  -1.3872491301203266e-01  -1.3943533526873239e-01  -1.3933245337104783e-01  -1.3883641773550767e-01  -1.3861957133133243e-01  -1.3982122805622174e-01  -1.4371113868273611e-01  -1.5162862384544903e-01  -1.6474333667628707e-01  -1.8358562298551173e-01  -2.0760706414296959e-01  -2.3522878673079550e-01  -2.6398547094398606e-01  -2.9091643659842148e-01  -3.1328179701922693e-01  -3.2885772763782040e-01  -3.3488025708794322e-01  -3.3411141976712200e-01  -3.2561192637759173e-01  -3.1403100161937519e-01  -3.0190408392902079e-01  -2.9158756582490425e-01  -2.8496950956324280e-01  -2.8242026400973508e-01  -2.8380417643264816e-01  -2.8933285761549227e-01  -2.9927667513888812e-01  -3.1417598340576475e-01  -3.3442016706195465e-01  -3.6030989290082815e-01  -3.9174815711268579e-01  -4.2738454006510179e-01  -4.6563546996010319e-01  -5.0417317438243192e-01  -5.4096615888137145e-01  -5.7267847619107481e-01  -5.9815403833331449e-01  -6.1639213610674126e-01  -6.2759341280832948e-01  -6.3291525497658097e-01  -6.3392833138431726e-01  -6.3256317792409367e-01  -6.3048989048965109e-01  -6.2902730863625944e-01  -6.2892824734287400e-01  -6.3078412717704957e-01  -6.3484415882908807e-01  -6.4118902902535535e-01  -6.4986958636148973e-01  -6.6073242061760229e-01  -6.7375805916649800e-01  -6.8888896373641584e-01  -7.0597635983845053e-01  -7.2487236995581095e-01  -7.4485374337389831e-01  -7.6555841837456118e-01  -7.8616599336372150e-01  -8.0645935923792933e-01  -8.2531402701989409e-01  -8.4259113498099081e-01  -8.5815105645956979e-01  -8.7053670969914154e-01  -8.8046424151190761e-01  -8.8779823782759637e-01  -8.9301129504778154e-01  -8.9612099280769653e-01  -8.9733547939639713e-01  -8.9698137191736294e-01  -8.9548859724162411e-01  -8.9299070858129426e-01  -8.8959197149641844e-01  -8.8561131515952607e-01  -8.8108093100741625e-01  -8.7616649842243677e-01  -8.7093330531557278e-01  -8.6543717346576288e-01  -8.5973927504063008e-01  -8.5390224141561188e-01  -8.4794433798303603e-01  -8.4189454960254384e-01  -8.3577901393574117e-01  -8.2961986284697209e-01  -8.2342874244903808e-01  -8.1720844218433142e-01  -8.1097626953760571e-01  -8.0473578426641734e-01  -7.9849435206867958e-01  -7.9225441029156363e-01  -7.8601932341953551e-01  -7.7979550630038041e-01  -7.7357991902619838e-01  -7.6737924796161094e-01  -7.6119155579340425e-01  -7.5501916768274580e-01  -7.4886358032998246e-01  -7.4272416458191048e-01  -7.3660236316198746e-01  -7.3049835018290721e-01  -7.2441243844606928e-01  -7.1834490229182935e-01  -7.1229590133297938e-01  -7.0626560968788066e-01  -7.0025425088187443e-01  -6.9426223296252731e-01  -6.9426545876570711e-01  -6.9427356749620206e-01  -6.9428619712316253e-01  -6.9430158705691336e-01  -6.9431695238086855e-01  -6.9432962836517265e-01  -6.9433767529426971e-01  -6.9434091411146626e-01  -7.8840950314829361e-01  -7.1841189818051165e-01  -1.5911658625855531e+00  -1.2406793929099562e+00  -1.1561025322517851e+00  -1.1459285147975762e+00  -1.0850857266249958e+00  -1.0404970466346273e+00  -1.0049354364871528e+00  -9.7743403966303388e-01  -9.5769927230952756e-01  -9.4029156300330896e-01  -9.2451999265871299e-01  -9.0973325121421900e-01  -8.9539312482653577e-01  -8.8160104776568649e-01  -8.6741305640559152e-01  -5.8090231789972935e-01  -3.7371003920654017e-01  -3.6938393931430341e-01  -4.2746650778864775e-01  -4.6787568928013457e-01  -4.8244532528507644e-01  -7.5183134543636720e-01  -6.9709447387019552e-01  -4.7775069863535963e-01  -4.5913556910592801e-01  -4.2912034609644384e-01  -7.0047221963536432e-01  -3.8396668853274951e-01  -3.1795627590236852e-01  -8.5327534926894577e-01  -2.5522608263043967e-01  -6.4491630582316473e-01  -6.2732336796644583e-01  -2.3625692655413591e-01  -6.3258142006013551e-01  -8.3820317972844338e-01  -5.6320732899623926e-01  -2.3902657172478206e-01  -8.2369744578741966e-01  -7.7065576340808795e-01  -2.4639154950771297e-01  -3.7683554494805166e-01  -7.5320919843057133e-01  -8.0726324826327378e-01  -2.6032396311387995e-01  -2.8203752881320504e-01  -7.8931782955497176e-01  -2.9376659484835721e-01  -2.0977444517053817e-01  -3.3011612614623226e-01  -8.3089595061032584e-01  -1.0621410538592652e-01  -7.7135403786317880e-01  -3.2279448793000581e-01  -8.7452849363561946e-01  -8.9454040714441463e-01  -2.5137319321514195e-01  -6.4489176829680847e-02  -7.5139614902460028e-01  -7.3656723732463159e-01  -3.0699357270194877e-01  -5.8893216231432129e-02  -5.3136677845110149e-02  -8.9423629706521934e-01  -1.7403800104464390e-01  -1.3812716149772811e-01  -8.8311467881942085e-01  -1.3373832032475432e+00  -1.4958780555272153e+00  -8.6829047073848964e-01  -1.3882920528932705e-01  -4.5411160849861361e-02  -8.4572060090856005e-01  -1.3299976675824823e-01  -8.1425648745947676e-01  -1.1992820314032941e-01  -7.8290363474516922e-01  -8.9525420143219306e-02  -7.6438431742743518e-01  -7.2758523568135247e-01  -7.4564763035555814e-01  -4.4525075255495830e-02  -6.9935125425472411e-01  -7.1042789971663715e-03  -7.2003520033451685e-01  -7.0932395209083465e-01  -9.3962864847324089e-03  -3.9505761910526474e-02  -7.0259633077788997e-01  -7.3835807456474467e-01  -7.9289096561247852e-01  -6.6695580539941890e-01  -8.9699900392307519e-01  -8.5675270114628821e-01  -8.3298318177735409e-01  -8.0087988412304634e-01  -4.8717256380084423e-01  -6.2250229013108704e-01  -6.3007061737496739e-01  -6.3188516327090138e-01  -7.6178093654918855e-01  -7.8054620042060818e-01  -1.4703917493086169e-01  -1.3755042858499872e-01  -7.9786459229324203e-01  -7.8353399748099878e-02  -7.1541674284082857e-01  -1.5531046013706706e-01  -2.4735252105006289e-01  -8.1532938476241257e-01  -2.5540424608607520e-01  -6.9935647540393520e-01  -2.4121920908967712e-01  -8.3071062088102510e-01  -2.3692753051751192e-01  -2.4056942402169196e-01  -4.8218252452807586e-01  -2.8260043148749503e-01  -8.4600264663699920e-01  -3.5319072470216945e-01  -4.1061026590122807e-01  -4.4465701845582878e-01  -8.6045971498399065e-01  -4.6939369240817663e-01  -1.6422232761329609e-02  -8.7443548313082409e-01  -8.8843422324744292e-01  -9.0277282364636902e-01  -9.1655725270112154e-01  -9.3257024165558788e-01  -9.4888130934254034e-01  -9.6769299876357073e-01  -9.9363090612910421e-01  -7.1467148876228392e-01  -1.0255850861853728e+00  -1.0660756945429861e+00  -1.1190075924347898e+00  -4.4969862562544477e-01  -1.1933539375376134e+00  -3.9727411655134903e-01  -3.5491393872436550e-01  -4.4935295652593310e-01  -4.7796565029750510e-01  -6.9897931080599274e-01  -9.2963877448776611e-01  3.1380331736375511e-03  -7.0899230290198723e-01  2.2715798979908047e-03  -7.2219759938225214e-01  -1.6112806246208526e-02  -6.9878652519606577e-01  -7.2854017218581135e-01  -7.2863753861255121e-01  -7.3817145665913386e-01  -7.2871099193465760e-01  -7.4036891813625660e-01  -7.3023739344733118e-01  -7.4650637372028317e-01  -7.3258463895370840e-01  -7.5300441487767877e-01  -7.3490367524246247e-01  -7.5948996342055031e-01  -7.3694316142055427e-01  -7.6541318349577270e-01  -7.4173800604601847e-01  -7.7177597074490167e-01  -7.4985414127985184e-01  -7.7693533223553068e-01  -7.5597923560062430e-01  -7.7459902177086060e-01  -7.5484413052071986e-01  -7.6285225999256934e-01  -7.4116859001804347e-01  -7.9065160660822487e-01  -7.6312228382809644e-01  -7.4298958920408620e-01  -7.3560464731248176e-01  -7.8790647785702517e-01  -7.5224012710777621e-01  -7.7235044333725167e-01  -7.3061749694957878e-01  -7.4157597003085496e-01  -7.0269667566532223e-01  -7.0138791722940852e-01  -6.7294940588648600e-01  -6.5888663664445224e-01  -6.4424447141242591e-01  -6.2231763511568727e-01  -6.1976673725906517e-01  -5.9438820847869933e-01  -6.0527531602930262e-01  -5.7785399145186767e-01  -6.0108760989430787e-01  -5.7131332628660270e-01  -5.9671792994503359e-01  -5.7023993167584586e-01  -5.9881334438643519e-01  -5.7400206655023001e-01  -6.0323047835697774e-01  -5.7977916465227775e-01  -6.0810754559667834e-01  -5.8837985068035215e-01  -7.3846974397654286e-01  -7.3920027696167800e-01  -6.1275842739473962e-01  -5.9026440559762516e-01  -6.1692328045376199e-01  -5.9817143398916195e-01  -6.2036893146960514e-01  -6.0126542794631632e-01  -6.2254844022930866e-01  -6.0232957418095412e-01  -6.2180124186535657e-01  -6.0066885074105547e-01  -7.3331550730538830e-01  -6.1808496096397192e-01  -5.9534513664578559e-01  -6.1014166898001132e-01  -5.8628816775367498e-01  -5.9813803093261364e-01  -5.7325876374527218e-01  -7.3998628869361016e-01  -7.4753179549349735e-01  -7.1571689172589381e-01  -5.8131610487943897e-01  -5.5636596145777717e-01  -7.3127772512852107e-01  -5.5982867654395074e-01  -5.3609750523488942e-01  -5.3532398452322416e-01  -5.1355624692224910e-01  -5.0811934885504628e-01  -4.8930195683403294e-01  -6.7850718304397795e-01  -4.7997014508604313e-01  -4.6476417826690813e-01  -4.5118719956529868e-01  -4.4054244820305194e-01  -4.2375342614880251e-01  -4.1774176726648415e-01  -7.9882074271973924e-01  -6.2160108768599687e-01  -3.9826583438448021e-01  -3.9650063938366675e-01  -7.4578094361961456e-01  -7.6027359325548349e-01  -7.3442336790603513e-01  -6.1467372206934445e-01  -3.7434692450919371e-01  -3.7697829076279543e-01  -3.5347079534820008e-01  -3.5942117949228553e-01  -3.3537473997180384e-01  -3.4378508801128932e-01  -5.4672328749272114e-01  -4.0021624126875233e-01  -4.9458948685887016e-01  -5.7442870205064200e-01  -3.2030721528066491e-01  -3.2971681184545437e-01  -3.5540969864642458e-01  -3.4201232448580093e-01  -3.1774097927552875e-01  -3.2963121578736615e-01  -3.0804709647551415e-01  -3.1856754719155422e-01  -3.0089616182075135e-01  -3.0943951878437120e-01  -2.9719439475303105e-01  -3.0401399060588907e-01  -2.9758160017472046e-01  -3.0220710661685857e-01  -3.0197219464760550e-01  -3.0432530444866462e-01  -3.0958824613799524e-01  -3.0879064089507335e-01  -3.1914931139722524e-01  -3.1448476978043316e-01  -3.2819211160928025e-01  -3.1949255854633068e-01  -3.3523732051116206e-01  -3.2199244078310857e-01  -5.7464162555080933e-01  -6.2417763645019797e-01  -3.3723821425334471e-01  -3.2055624822113016e-01  -3.3297568460194349e-01  -3.1414509074786712e-01  -7.4062708158378132e-01  -3.2300874679902886e-01  -3.0349998256073729e-01  -5.3512596504038423e-01  -5.5598498825375631e-01  -7.5388180005742433e-01  -7.7133438072475402e-01  -7.8054434993703181e-01  -7.9447012220199487e-01  -8.0650903225675896e-01  -8.2183462378801031e-01  -8.3854690072915616e-01  -8.5282139560649128e-01  -8.7756264636447956e-01  -8.8539047242971725e-01  -9.1936559824214037e-01  -9.1738053960839794e-01  -9.6034997937030542e-01  -9.4887208390130795e-01  -1.0042072394413923e+00  -9.7987879589960580e-01  -1.0249914209959454e+00  -9.9483930124000175e-01  -1.0397300450004543e+00  -1.0134502044973810e+00  -1.0482741897721031e+00  -1.0205387003756972e+00  -1.0496584806643403e+00  -1.0225796930157758e+00  -1.0463519004021613e+00  -1.0210934710874084e+00  -1.0404505220939857e+00  -1.0174764628912727e+00  -9.8920554176486242e-01  -9.9747022903520410e-01  -9.9569721317176718e-01  -1.0123761080153304e+00  -9.9272783647253493e-01  -1.0061931459129665e+00  -9.8868961792307875e-01  -9.9960669489959553e-01  -9.8402973368171787e-01  -9.7507106674476285e-01  -9.9523840365509930e-01  -9.7909010427879184e-01  -9.8629017722018775e-01  -9.7341173619985122e-01  -9.6499264024549647e-01  -9.6090369592634350e-01  -9.6777913167191187e-01  -9.5662421883413784e-01  -9.6170805782857960e-01  -9.5196847651955652e-01  -8.1533281192862084e-01  -9.5579297070399649e-01  -9.4726713953225439e-01  -9.4203116078393911e-01  -9.3835223367602127e-01  -9.4268989935293090e-01  -9.3449223518117019e-01  -9.3803425981860289e-01  -9.3046305959944098e-01  -1.0118053948512524e+00  -9.4129356205926584e-01  -9.0833044961017473e-01  -1.0695158418636663e+00  -9.3373264184333027e-01  -9.2637078999761047e-01  -9.2305097869447150e-01  -9.1942235804641992e-01  -9.2210592243453071e-01  -9.1567642021138484e-01  -9.1772775937194240e-01  -9.1174594626242522e-01  -9.0944629879810668e-01  -9.0601338145889787e-01  -9.0770953154320300e-01  -9.0233631536541925e-01  -9.5198684679010781e-01  -9.0355771006053653e-01  -8.9854618273926556e-01  -1.0800492232749950e+00  -8.5474481675370639e-01  -9.3268173293779755e-01  -1.0648895820529372e+00  -8.9940454892041999e-01  -8.9452955681594282e-01  -8.9380923802660062e-01  -8.8974844475007553e-01  -8.9057274092985883e-01  -8.8583187756513104e-01  -8.8495208415194160e-01  -8.8121714658351435e-01  -8.8183864322570960e-01  -8.7738826206774323e-01  -1.0159740722141219e+00  -8.7778509838879193e-01  -8.7340539285513485e-01  -9.0352738552341305e-01  -9.7013764723878582e-01  -6.3544311607655657e-01  -9.9868102363488254e-01  -8.7300128033058044e-01  -8.6911582939057042e-01  -8.6935185020316896e-01  -8.6516017911307086e-01  -3.0824453229978577e-01  -2.8963753669457543e-01  -2.8989223232061212e-01  -2.7388466686390683e-01  -2.6934872500154794e-01  -2.5839263039375276e-01  -8.6508139858013056e-01  -8.6102916373542937e-01  -6.0276215750860718e-01  -8.6098896490681642e-01  -8.5695261120415822e-01  -8.5699474094851236e-01  -8.5288652052829073e-01  -7.1898401302876314e-01  -7.8743877373808446e-01  -9.4581411543204874e-01  -3.0607211848332233e-01  -2.4906436062057200e-01  -2.4524844283004898e-01  -3.6685367299093252e-01  -3.0365143260070909e-01  -2.5165800604534477e-01  -2.4683019362909536e-01  -2.3547784379127495e-01  -2.4516003240665654e-01  -2.2921195206682574e-01  -2.4546008896343341e-01  -2.2501123154464520e-01  -2.4543205190469611e-01  -2.2121581270885110e-01  -2.4322908063572846e-01  -2.1561391442915923e-01  -2.3669770072473320e-01  -2.0678019588337029e-01  -2.2520741784556542e-01  -1.9520407746431012e-01  -2.0890812040272502e-01  -1.8192894874216867e-0