<?xml version="1.0"?>
<VTKFile type="UnstructuredGrid"  version="0.1"  >
<UnstructuredGrid>
<Piece  NumberOfPoints="2945" NumberOfCells="5525">
<Points>
<DataArray  type="Float64"  NumberOfComponents="3"  format="ascii">0 0.1 0  0.95 0.1 0  1 0.1 0  1 0 0  1.5 0 0  3 0 0  3 0.3 0  0 0.3 0  0.0197424558707114 0.1 0  0.03915669042224804 0.1 0  0.05824816022699029 0.1 0  0.07702223050332387 0.1 0  0.09548417327144595 0.1 0  0.1136391897583987 0.1 0  0.1314923700144587 0.1 0  0.1490487330862866 0.1 0  0.1663132263225292 0.1 0  0.1832906857273058 0.1 0  0.1999858946008978 0.1 0  0.216403545770297 0.1 0  0.2325482404045023 0.1 0  0.2484245348165176 0.1 0  0.2640368740372501 0.1 0  0.2793896589642241 0.1 0  0.2944872056237027 0.1 0  0.3093337469555254 0.1 0  0.3239334613687816 0.1 0  0.3382904528528069 0.1 0  0.3524087553122972 0.1 0  0.3662923366391824 0.1 0  0.3799451014768399 0.1 0  0.393370886920506 0.1 0  0.4065734648871676 0.1 0  0.419556546320114 0.1 0  0.4323237821343415 0.1 0  0.4448787573056132 0.1 0  0.4572250047274954 0.1 0  0.4693659926332938 0.1 0  0.4813051343276231 0.1 0  0.4930457849308193 0.1 0  0.5045912455271677 0.1 0  0.5159447600209797 0.1 0  0.5271095174127136 0.1 0  0.5380886618453393 0.1 0  0.5488852725463512 0.1 0  0.5595023868312478 0.1 0  0.5699429904313016 0.1 0  0.5802100167387366 0.1 0  0.5903063508274641 0.1 0  0.6002348329443006 0.1 0  0.6099982499579832 0.1 0  0.6195993483501782 0.1 0  0.6290408246013842 0.1 0  0.6383253354321616 0.1 0  0.6474554910757137 0.1 0  0.6564338522440513 0.1 0  0.6652629482939147 0.1 0  0.6739452579188948 0.1 0  0.6824832240165607 0.1 0  0.6908792415022103 0.1 0  0.6991356755989045 0.1 0  0.7072548438546967 0.1 0  0.7152390281534421 0.1 0  0.7230904746196039 0.1 0  0.7308113906759266 0.1 0  0.7384039435269326 0.1 0  0.7458702676581656 0.1 0  0.7532124631720397 0.1 0  0.7604325921167397 0.1 0  0.7675326856666862 0.1 0  0.7745147374421916 0.1 0  0.7813807123989068 0.1 0  0.7881325374362798 0.1 0  0.7947721131625659 0.1 0  0.8013013031866276 0.1 0  0.8077219449067021 0.1 0  0.8140358419942376 0.1 0  0.8202447685401882 0.1 0  0.8263504700910924 0.1 0  0.8323546643163114 0.1 0  0.8382590362474568 0.1 0  0.8440652473522128 0.1 0  0.8497749272799842 0.1 0  0.8553896837646281 0.1 0  0.8609110933285474 0.1 0  0.866340708855119 0.1 0  0.8716800550492284 0.1 0  0.8769306339052932 0.1 0  0.8820939206038667 0.1 0  0.8871713655604893 0.1 0  0.8921643975475726 0.1 0  0.8970744196575535 0.1 0  0.9019028106970642 0.1 0  0.9066509291259979 0.1 0  0.9113201098984042 0.1 0  0.9159116634553873 0.1 0  0.9204268818729691 0.1 0  0.9248670319440222 0.1 0  0.9292333656649013 0.1 0  0.9335271075812669 0.1 0  0.9377494640511216 0.1 0  0.941901623463222 0.1 0  0.9459847526686701 0.1 0  0.9538461538461205 0.1 0  0.9576923076922409 0.1 0  0.9615384615384381 0.1 0  0.9653846153846337 0.1 0  0.9692307692307542 0.1 0  0.9730769230768747 0.1 0  0.9769230769229952 0.1 0  0.9807692307691157 0.1 0  0.9846153846152361 0.1 0  0.9884615384614317 0.1 0  0.9923076923076356 0.1 0  0.9961538461538395 0.1 0  1 0.09591793123533533 0  1 0.09133596463859224 0  1 0.08619288104391448 0  1 0.08041996484521211 0  1 0.07394008421771697 0  1 0.06666666567302955 0  1 0.05850252932209174 0  1 0.04933859630113544 0  1 0.03905242821848202 0  1 0.02750659386753798 0  1 0.01454683679239736 0  1.015625 0 0  1.03125 0 0  1.046875 0 0  1.0625 0 0  1.078125 0 0  1.09375 0 0  1.109375 0 0  1.125 0 0  1.140625 0 0  1.15625 0 0  1.171875 0 0  1.1875 0 0  1.203125 0 0  1.21875 0 0  1.234375 0 0  1.25 0 0  1.265625 0 0  1.28125 0 0  1.296875 0 0  1.3125 0 0  1.328125 0 0  1.34375 0 0  1.359375 0 0  1.375 0 0  1.390625 0 0  1.40625 0 0  1.421875 0 0  1.4375 0 0  1.453125 0 0  1.46875 0 0  1.484375 0 0  1.515920751924515 0 0  1.531989369316721 0 0  1.54820720925872 0 0  1.564575665560501 0 0  1.581096138674279 0 0  1.597770029901263 0 0  1.614598783332311 0 0  1.631583831055205 0 0  1.64872661129721 0 0  1.666028606716533 0 0  1.683491276608443 0 0  1.701116134125304 0 0  1.718904673324128 0 0  1.736858414799339 0 0  1.754978895814663 0 0  1.773267661782904 0 0  1.791726281103402 0 0  1.810356325314689 0 0  1.8291593848892 0 0  1.848137076690385 0 0  1.867291007717254 0 0  1.886622833871288 0 0  1.90613418642363 0 0  1.925826753299799 0 0  1.945702199101513 0 0  1.96576223584749 0 0  1.986008569283268 0 0  2.006442931928877 0 0  2.02706707547783 0 0  2.047882750887917 0 0  2.06889175187935 0 0  2.090095860038271 0 0  2.111496891648636 0 0  2.133096679109554 0 0  2.154897066851056 0 0  2.176899916687499 0 0  2.199107102752146 0 0  2.22152053937028 0 0  2.244142122958061 0 0  2.266973806444078 0 0  2.290017523268154 0 0  2.313275249499252 0 0  2.336748971745516 0 0  2.360440702338606 0 0  2.384352453384031 0 0  2.408486280477412 0 0  2.432844240041185 0 0  2.457428414757088 0 0  2.482240901796653 0 0  2.507283830121838 0 0  2.532559332080812 0 0  2.558069568787417 0 0  2.583816724966441 0 0  2.60980299606584 0 0  2.636030600971886 0 0  2.662501790984011 0 0  2.689218818279327 0 0  2.716183964547616 0 0  2.743399548861297 0 0  2.77086788244719 0 0  2.798591312896326 0 0  2.826572223178268 0 0  2.854812990138617 0 0  2.883316031690714 0 0  2.912083780657189 0 0  2.941118704633482 0 0  2.970423276998917 0 0  3 0.02999999999994495 0  3 0.05999999999987042 0  3 0.089999999999783 0  3 0.119999999999701 0  3 0.149999999999619 0  3 0.179999999999692 0  3 0.2099999999997737 0  3 0.2399999999998511 0  3 0.2699999999999185 0  2.970138294777171 0.3 0  2.940375666438236 0.3 0  2.910711782853056 0.3 0  2.881146331305122 0.3 0  2.851678975030285 0.3 0  2.822309388626621 0.3 0  2.793037250095074 0.3 0  2.76386223529133 0.3 0  2.734784017903872 0.3 0  2.705802289276642 0.3 0  2.676916713794697 0.3 0  2.648126987654635 0.3 0  2.619432780406184 0.3 0  2.590833779385199 0.3 0  2.562329669847737 0.3 0  2.533920134950189 0.3 0  2.505604855727852 0.3 0  2.477383539822502 0.3 0  2.449255847639465 0.3 0  2.421221492569094 0.3 0  2.393280152486815 0.3 0  2.36543151914496 0.3 0  2.337675285481809 0.3 0  2.310011142385583 0.3 0  2.282438797441587 0.3 0  2.254957931061538 0.3 0  2.227568248063605 0.3 0  2.200269436651085 0.3 0  2.173061204949961 0.3 0  2.145943251515011 0.3 0  2.118915272469994 0.3 0  2.091976978084957 0.3 0  2.065128060700849 0.3 0  2.038368218849433 0.3 0  2.01169717777258 0.3 0  1.985114624111908 0.3 0  1.958620267850966 0.3 0  1.93221382054972 0.3 0  1.905894991850698 0.3 0  1.879663489459713 0.3 0  1.853519019126419 0.3 0  1.827461291053897 0.3 0  1.801490031354372 0.3 0  1.775604937580312 0.3 0  1.74980572560258 0.3 0  1.724092118631866 0.3 0  1.698463829173586 0.3 0  1.672920575782554 0.3 0  1.647462076974085 0.3 0  1.622088043536933 0.3 0  1.5967981978949 0.3 0  1.571592267767068 0.3 0  1.546469970305736 0.3 0  1.521431023814044 0.3 0  1.496475156230927 0.3 0  1.471602093687753 0.3 0  1.446811560490646 0.3 0  1.422103279101731 0.3 0  1.397476971708191 0.3 0  1.37293238939876 0.3 0  1.348469231419202 0.3 0  1.324087248732772 0.3 0  1.299786165921677 0.3 0  1.275565710847046 0.3 0  1.251425617644257 0.3 0  1.227365618676339 0.3 0  1.203385446174014 0.3 0  1.179484853067473 0.3 0  1.155663548773374 0.3 0  1.131921292279077 0.3 0  1.108257802159295 0.3 0  1.084672829009693 0.3 0  1.061166115303374 0.3 0  1.037737392995421 0.3 0  1.01438640299116 0.3 0  0.991112899770314 0.3 0  0.9679166155523955 0.3 0  0.944797284182564 0.3 0  0.921754678526042 0.3 0  0.8987885143602501 0.3 0  0.8758985548820624 0.3 0  0.8530845484099929 0.3 0  0.8303462351786988 0.3 0  0.8076833651172373 0.3 0  0.7850956864865304 0.3 0  0.7625829601354557 0.3 0  0.7401449314598274 0.3 0  0.717781337993959 0.3 0  0.6954919649675473 0.3 0  0.6732765357561226 0.3 0  0.6511348120768439 0.3 0  0.6290665642016573 0.3 0  0.6070715355430467 0.3 0  0.5851494825775325 0.3 0  0.5633001690203812 0.3 0  0.5415233562273221 0.3 0  0.5198187909431873 0.3 0  0.4981862401387795 0.3 0  0.4766254686134248 0.3 0  0.4551362360485234 0.3 0  0.4337182975262159 0.3 0  0.4123714223228037 0.3 0  0.3910953802377493 0.3 0  0.3698899313205595 0.3 0  0.3487548463710963 0.3 0  0.3276898864081783 0.3 0  0.3066948129116018 0.3 0  0.2857694003037476 0.3 0  0.2649134227095047 0.3 0  0.2441266417321288 0.3 0  0.2234088223399122 0.3 0  0.2027597568977288 0.3 0  0.1821792020676698 0.3 0  0.1616669305402443 0.3 0  0.1412227158799362 0.3 0  0.12084633013886 0.3 0  0.1005375673448281 0.3 0  0.08029618164595353 0.3 0  0.06012194778526769 0.3 0  0.04001466495039718 0.3 0  0.01997408913631205 0.3 0  0 0.2800000000000553 0  0 0.2600000000001105 0  0 0.2400000000001658 0  0 0.2200000000002211 0  0 0.2000000000002764 0  0 0.1800000000002244 0  0 0.1600000000001691 0  0 0.140000000000115 0  0 0.1200000000000564 0  1.133778471000506 0.01219539743990768 0  1.003741919047894 0.09354664821474232 0  0.9559421147150347 0.1035858189992458 0  0.9313792160389045 0.1037365237938103 0  0.9788461538460573 0.1033060829993555 0  0.9090102438250753 0.1037269304984056 0  0.8846304212778655 0.1043349840723655 0  0.8581503885465881 0.104741932962923 0  0.8286416220145676 0.1052762843984476 0  0.7982741772533339 0.1053575624517407 0  0.7708789559342691 0.1060290465840416 0  0.741870349714261 0.1078220590984258 0  0.7112469360040695 0.10685702926368 0  0.6783901541417233 0.1079959711853378 0  0.642884733623195 0.1075561996086514 0  0.6056235042367955 0.1085956039602543 0  0.5647007593786924 0.1083187281660325 0  1.1953125 0.01353164693413185 0  1.258148737344733 0.01268350115427042 0  1.320087046516829 0.01426312402966312 0  1.383495130751951 0.01432665475473204 0  1.4453125 0.01315663539200989 0  1.50886768312388 0.01395488397722681 0  0.9942307692307371 0.103330866937657 0  1.119309781943483 0.2802014914557878 0  1.572831235329714 0.01707210522554785 0  1.637611634353954 0.01209340368483431 0  1.709661292005932 0.0146870244871893 0  1.006561890631532 0.07068055446055937 0  1.784793444007901 0.01499371444634687 0  1.855459587353174 0.0
[...]
<PointData  Scalars="pressure"> 
<DataArray  type="Float64"  Name="pressure"  format="ascii">4.7018537769430567e-02  -9.7727792953640880e-01  6.3435804684859473e-02  1.6997100482035687e-01  1.5994520154611974e-01  0.0000000000000000e+00  0.0000000000000000e+00  4.7114427424873186e-02  4.1095891157768120e-02  3.5270649754738981e-02  2.9540871706758540e-02  2.3904792076232587e-02  1.8360471799044834e-02  1.2906397275595439e-02  7.5407229595137746e-03  2.2615543663670806e-03  -2.9323953298416362e-03  -8.0435371880358021e-03  -1.3073500888841063e-02  -1.8023697094489064e-02  -2.2896420352254917e-02  -2.7693212876432952e-02  -3.2416348843352490e-02  -3.7067458008092004e-02  -4.1649043830722092e-02  -4.6162606871460642e-02  -5.0610869223761214e-02  -5.4995369444497885e-02  -5.9319528426581745e-02  -6.3584894518000326e-02  -6.7792306355916876e-02  -7.1947471963636073e-02  -7.6051144748292970e-02  -8.0106931322664707e-02  -8.4116430900636432e-02  -8.8083612339061076e-02  -9.2011576702894143e-02  -9.5903016466780525e-02  -9.9761743395471961e-02  -1.0358860438792619e-01  -1.0739194168599273e-01  -1.1117275345829737e-01  -1.1493460915397326e-01  -1.1868178678543521e-01  -1.2241960720324867e-01  -1.2615097289905192e-01  -1.2988137187669352e-01  -1.3361473514134264e-01  -1.3735747742602591e-01  -1.4111365454047023e-01  -1.4488862549170009e-01  -1.4868745794245566e-01  -1.5251717667522224e-01  -1.5638215066192970e-01  -1.6029096074028729e-01  -1.6424802363069915e-01  -1.6826076978607316e-01  -1.7233866670892498e-01  -1.7648572161357134e-01  -1.8071128169857362e-01  -1.8502849948459943e-01  -1.8943288302344288e-01  -1.9394456156279921e-01  -1.9857136129152375e-01  -2.0331890064986582e-01  -2.0821177309778754e-01  -2.1324511618171799e-01  -2.1842609717117462e-01  -2.2378565360506603e-01  -2.2932995397784112e-01  -2.3508125144822356e-01  -2.4103880519115634e-01  -2.4721458608931543e-01  -2.5365582586527108e-01  -2.6036235375202149e-01  -2.6736007013253138e-01  -2.7467318651971151e-01  -2.8232624780361160e-01  -2.9034449594845119e-01  -2.9876774458232253e-01  -3.0761514843987336e-01  -3.1692850293520286e-01  -3.2676751710003155e-01  -3.3717409461754438e-01  -3.4818977901665754e-01  -3.5989717448292341e-01  -3.7236696183119111e-01  -3.8566347282320468e-01  -3.9988697434472847e-01  -4.1523022712412294e-01  -4.3175108917246985e-01  -4.4965273888996760e-01  -4.6911549095400901e-01  -4.9049600079981293e-01  -5.1405517760776165e-01  -5.4018896215708923e-01  -5.6974442128569125e-01  -6.0335602877124239e-01  -6.4206296720414557e-01  -6.8777202115975822e-01  -7.4283895117461063e-01  -8.1143777042892984e-01  -9.1192120747674588e-01  -1.3872667541727648e+00  -1.5323600765925145e+00  -1.4597847388742577e+00  -1.3149589544120304e+00  -1.1293038864773244e+00  -9.3999160586201946e-01  -7.2885778681399271e-01  -5.2503291902432314e-01  -3.0867153491344052e-01  -1.0658979911450790e-01  6.6086874071066434e-02  2.6284257878083006e-01  -7.3028923079417510e-02  6.2090265829818324e-02  9.0157733062618275e-02  1.1343493204922066e-01  1.2850161150126677e-01  1.4008861953690291e-01  1.4966383805297809e-01  1.5753551515697875e-01  1.6384422518050260e-01  1.6834636015045593e-01  1.7038681202947945e-01  1.6953316475042074e-01  1.7270417517985634e-01  1.7939295886258574e-01  1.8848111232193707e-01  1.9848151030046077e-01  2.0721846609205430e-01  2.1289073305439588e-01  2.1437446103018296e-01  2.1122268383101966e-01  2.0361993931426065e-01  1.9188197890363287e-01  1.7669409649141446e-01  1.5883169237704930e-01  1.3929833622295801e-01  1.1961237793920593e-01  1.0139741902477271e-01  8.6647370656045261e-02  7.7000621496114224e-02  7.3408479305564669e-02  7.6569435061245791e-02  8.5134763763229357e-02  9.7791377543251401e-02  1.1315958118679956e-01  1.2899536053634744e-01  1.4404907170957595e-01  1.5632990596896859e-01  1.6566587726930235e-01  1.7107862420351680e-01  1.7281830142347726e-01  1.7112907668848956e-01  1.6660692893751997e-01  1.5166793323063132e-01  1.4250763098948882e-01  1.3309696984877006e-01  1.2366548784915725e-01  1.1457466713140234e-01  1.0596073083361641e-01  9.7696380958049570e-02  9.0177289380994660e-02  8.2703795260726409e-02  7.5589704313652875e-02  6.8720212905723305e-02  6.2074550183000309e-02  5.5615648828956477e-02  4.9451871046587201e-02  4.3690623878458214e-02  3.8534372933374104e-02  3.4209298238039983e-02  3.1124874095316234e-02  2.9227460676017347e-02  2.9087584327255316e-02  3.0815580473517703e-02  3.4565390059851271e-02  4.0461779947832899e-02  4.8396819194288759e-02  5.8091179329129043e-02  6.9187049780073367e-02  8.0819818147606623e-02  9.2579481773409897e-02  1.0361426181407821e-01  1.1322875069862481e-01  1.2098044938593906e-01  1.2649928566493338e-01  1.2960052930209925e-01  1.3033192149861092e-01  1.2883066896566212e-01  1.2537779882315628e-01  1.2027163800838453e-01  1.1386265418224639e-01  1.0642800411644709e-01  9.8288465489956969e-02  8.9609167086871513e-02  8.0328992872817043e-02  7.0134212972118762e-02  5.8715073803348540e-02  4.6000718367440713e-02  3.2467597549086229e-02  1.9113841954849619e-02  7.4307175488803438e-03  -9.4353528349279338e-04  -4.0647080111020084e-03  -1.8110139769544125e-03  5.9769427436923437e-03  1.8387582044617847e-02  3.2906172679870574e-02  4.7286159990677139e-02  5.9627982304443231e-02  6.7556150989195804e-02  7.0965591629817332e-02  7.0018988457000594e-02  6.5510687934092121e-02  5.8515088633781534e-02  4.9783516980227038e-02  4.0588271781453883e-02  3.1340282954483024e-02  2.2648536789541793e-02  1.4593524275201135e-02  6.6435100569389024e-03  0.0000000000000000e+00  0.0000000000000000e+00  0.0000000000000000e+00  0.0000000000000000e+00  0.0000000000000000e+00  0.0000000000000000e+00  0.0000000000000000e+00  0.0000000000000000e+00  0.0000000000000000e+00  3.8911735366159777e-03  3.9873141706921649e-03  2.3906495209444403e-03  -5.0237577626054688e-05  -2.4113660829001089e-03  -3.7438275453197216e-03  -3.2884704840832088e-03  -5.7613104664346829e-04  4.5019781299614854e-03  1.1743035497217490e-02  2.0751623270883826e-02  3.1077733511522647e-02  4.2266822207283061e-02  5.3915609001917227e-02  6.5503100681182203e-02  7.6417293635344052e-02  8.5978929006958013e-02  9.3232805166027652e-02  9.7245235215706591e-02  9.7134048941351622e-02  9.2463330468989136e-02  8.3592023579986088e-02  7.1826567894600304e-02  5.9174757042853278e-02  4.8061204336582113e-02  4.0829064023999939e-02  3.9269660198961304e-02  4.4067004281894889e-02  5.4661391286365643e-02  6.9324629044153915e-02  8.5621602801832106e-02  1.0136828806838208e-01  1.1541241307048572e-01  1.2695314552792017e-01  1.3607455485476577e-01  1.4365529088402612e-01  1.4946193071776667e-01  1.5355604548535645e-01  1.5527737851627252e-01  1.5401048936569339e-01  1.4863731510769274e-01  1.3828873121383189e-01  1.2274000776488524e-01  1.0210040382692802e-01  7.7567478975396065e-02  5.1143357893219867e-02  2.5439308616803009e-02  3.4332149515241273e-03  -1.2605694284006026e-02  -2.1024531697314719e-02  -2.1149636822399585e-02  -1.3622428243018195e-02  4.5959652773156108e-04  1.7397352733622206e-02  3.6149080976517554e-02  5.4165727177757562e-02  6.9962288883306634e-02  8.2432482323038056e-02  9.0932196252232464e-02  9.5009191549336888e-02  9.4538315929962091e-02  8.9463690718614153e-02  8.0284564029573860e-02  6.7807458297926393e-02  5.2945096292447168e-02  3.6797074734418254e-02  2.0405119007321976e-02  4.9026277064464921e-03  -8.9151191955143434e-03  -2.0616087764580605e-02  -3.0243782848347469e-02  -3.8275616213134231e-02  -4.5629458058372298e-02  -5.3031823390362824e-02  -6.1164713837754521e-02  -7.0314944560776416e-02  -8.0388106676204593e-02  -9.1016389724016739e-02  -1.0198992770786032e-01  -1.1228849384182955e-01  -1.2151317649806942e-01  -1.2930711799274355e-01  -1.3565916096521921e-01  -1.4037126137049050e-01  -1.4334236580059589e-01  -1.4472704552473675e-01  -1.4487072810301202e-01  -1.4387009706204293e-01  -1.4175304266360023e-01  -1.3890270808249155e-01  -1.3531833210550129e-01  -1.3121001280261010e-01  -1.2665072383159137e-01  -1.2170643115594826e-01  -1.1645642462903534e-01  -1.1099430928626922e-01  -1.0533733198413980e-01  -9.9530236725319049e-02  -9.3609600074293656e-02  -8.7611431427608369e-02  -8.1551375962276823e-02  -7.5432963146903509e-02  -6.9284425386853268e-02  -6.3109967753029378e-02  -5.6922858124682417e-02  -5.0725068651598565e-02  -4.4523408562786519e-02  -3.8327262685719933e-02  -3.2132508092522112e-02  -2.5949312599398203e-02  -1.9774946979803136e-02  -1.3613022940119771e-02  -7.4658777153564478e-03  -1.3326816780470502e-03  4.7842656316200742e-03  1.0884659153271595e-02  1.6967947965661645e-02  2.3033660351296881e-02  2.9081492806757783e-02  3.5111131742128987e-02  4.1122209524784022e-02  4.7114157211042396e-02  4.7110194501329097e-02  4.7100339863586013e-02  4.7085070570600206e-02  4.7066505594445085e-02  4.7047970156677665e-02  4.7032643909972034e-02  4.7022864722933010e-02  4.7018884107305169e-02  2.1212489427045378e-01  5.7833988527172482e-02  -1.4019461368140473e+00  -6.7225079261243759e-01  -5.2970069770296890e-01  -5.0549490157315824e-01  -4.0945661302284569e-01  -3.4391295098188551e-01  -2.9442588438176109e-01  -2.5783423793474464e-01  -2.3253790210614977e-01  -2.1093787950178311e-01  -1.9194324260050497e-01  -1.7469802696586142e-01  -1.5846444858323286e-01  -1.4329219295628262e-01  -1.2806703842209016e-01  1.6920005927691617e-01  9.4237563575642752e-02  7.7711398109492152e-02  1.3401721605702091e-01  1.7020763847329365e-01  1.5550605407160270e-01  1.5140674441875482e-01  -2.5551241276012406e-02  1.2109438758950924e-01  8.8979939052926255e-02  6.0134027660303693e-02  1.3429450404092552e-01  3.6550257222212064e-02  2.9836863841016179e-02  -1.1321414315674634e-01  5.2338283714318715e-02  2.7723410676485951e-02  8.4633182637246368e-02  9.8927413577087661e-02  8.7642315906088619e-02  -9.7635617436478417e-02  1.2331623120224275e-02  1.2756500851544009e-01  -8.2818867198275789e-02  2.0202940712506887e-01  1.2353595927734962e-01  -7.5861993185162612e-03  -4.7821180993146736e-02  -6.6169572483860947e-02  9.4647260913001352e-02  1.2958486042896245e-01  -4.8092350280859876e-02  1.5430651645358542e-01  5.3669228072944615e-02  1.4629830982408298e-01  -8.2388603133712074e-02  2.3932386163471654e-03  -3.0057998710227168e-02  1.2188937732573804e-01  -1.1500244598885440e-01  -1.3767051644092476e-01  7.8474836672305037e-02  9.3223422686016452e-03  -1.0060892685022619e-02  4.7823534575949763e-03  6.1983877463901882e-02  5.2355972317508069e-02  7.1013813994625710e-02  -1.4411358448161313e-01  4.0358584538244834e-02  6.4229081789802925e-02  -1.3684511176624706e-01  -8.6998119999712220e-01  -1.1347943039281623e+00  -1.2423542185051793e-01  9.4522098730431797e-02  5.5443392858893943e-02  -1.0319101873853474e-01  8.2305705226985951e-02  -7.2519694858601977e-02  4.8932290497489567e-02  -4.1421507182186346e-02  1.6550533049001708e-02  -2.2960789477468758e-02  1.3796451223066117e-02  -4.2531976082879151e-03  -2.5650898635313814e-03  4.2015204897949368e-02  2.6723692609466423e-03  2.1321959333241960e-02  1.6042666174558781e-01  -2.4629587266740507e-03  2.6992635466383096e-02  1.0840428782329208e-01  1.8254784679405345e-01  -6.2861169917566878e-02  -2.9258689266310248e-03  -1.4353342555691664e-01  -1.1364246946167549e-01  -9.0884514700235994e-02  -5.9287129564460521e-02  -1.7743073726956899e-02  6.3473812299474588e-02  9.5076606283066467e-02  5.9662034175521440e-02  -2.0462405740725269e-02  -3.9280648350463299e-02  4.2106901462025823e-02  9.5991174002966001e-02  -5.6691986078355031e-02  -4.9729957492057166e-03  2.5961201945982941e-02  2.6167004922152799e-02  7.6083315069256779e-02  -7.4326745666232832e-02  1.1097022127271264e-01  4.2016304941932592e-02  1.2981791110630064e-01  -8.9965100844811713e-02  1.1521498366082816e-01  7.5220277300074814e-02  1.3884389840240119e-01  3.6565471790058791e-02  -1.0566808556481383e-01  3.0539656643947498e-02  4.7505316675883938e-02  7.3952048047159005e-02  -1.2072790546354721e-01  1.0372569237381662e-01  4.1942441332532311e-03  -1.3555812054363359e-01  -1.5075686396664933e-01  -1.6675724516328005e-01  -1.8258957162001746e-01  -2.0155715439219143e-01  -2.2148702307170762e-01  -2.4523825158695492e-01  -2.7919543198650143e-01  1.9748828838464708e-01  -3.2285170157766085e-01  -3.8106726227130400e-01  -4.6204192566759666e-01  1.3113159633291072e-01  -5.8615421322424288e-01  1.0183508733536879e-01  7.3925584609611766e-02  1.5699290059539300e-01  1.6800893190152805e-01  4.2381988862230373e-02  -1.3301120471916744e-01  2.0981630662544838e-03  3.2366885373100826e-02  2.1980817553614181e-03  1.7135995834609374e-01  5.7159442850318156e-03  4.2589604610425436e-02  1.7561469069118801e-01  1.7678585374122252e-01  1.8373821185923120e-01  1.7705101508065846e-01  1.8466405371985761e-01  1.7742434490669920e-01  1.8665904028708694e-01  1.7896952660765630e-01  1.8948024745077313e-01  1.8199921353955087e-01  1.9262489529993912e-01  1.8316182908836789e-01  1.9246569247213302e-01  1.7846402024312491e-01  1.8542349646781056e-01  1.6639109421987328e-01  1.7039620465473032e-01  1.4645375795584251e-01  1.4794036308894323e-01  1.1947499226065079e-01  1.1994716531697416e-01  1.1577409048145190e-01  1.5341965528043114e-01  1.1979035445359372e-01  8.8404498470499721e-02  8.4413288025984648e-02  1.4882577120815338e-01  1.1696716470001421e-01  1.4532673902124366e-01  1.1287162472965991e-01  1.3891792230974839e-01  1.0850358053398551e-01  1.3033116927842761e-01  1.0367217460896969e-01  1.1970022920520766e-01  9.4475328588826540e-02  1.0759743073057493e-01  9.2326911095814618e-02  9.7690706778433958e-02  8.9899114234950686e-02  9.0430048241250768e-02  8.9627214850289127e-02  8.6771449280707624e-02  9.2100563883253952e-02  8.6933943788699744e-02  9.6315458688703906e-02  9.0551755093308803e-02  1.0203482965705997e-01  9.6141999619659649e-02  1.0734734422500108e-01  1.0270839493471018e-01  5.6320720170160064e-02  4.8157835786670572e-02  1.1090418082790772e-01  1.0594681206145987e-01  1.1138492883527867e-01  1.0745716802419007e-01  1.0804654713903498e-01  1.0401262750643522e-01  1.0044486290235097e-01  9.6249477400942682e-02  8.8776440449292518e-02  8.4038767137027057e-02  8.4524238325995121e-02  7.3602397138224931e-02  6.8563153561544798e-02  5.5743028436347715e-02  5.0969791859419716e-02  3.6248721289890651e-02  3.2534849972095367e-02  2.5241670260459492e-02  1.5639878863659539e-02  1.6973957673440065e-01  1.6293635187868982e-02  1.4563075096160762e-02  6.8833730070130689e-02  -2.4526191579030241e-03  -1.4474783473983175e-03  -1.8689169100132637e-02  -1.4397198514705504e-02  -3.0626681822150070e-02  -2.2841328177368905e-02  8.3887428818816653e-02  -3.7876279610262228e-02  -2.6295833513369980e-02  -3.8275668245494561e-02  -2.3780197056846950e-02  -3.2749365587667521e-02  -1.6295857641106252e-02  1.9973356059809155e-01  8.3158606749555053e-02  -2.1363173953278903e-02  -4.3148588567950893e-03  -2.4701735953495361e-03  -1.3224909307528281e-02  4.5938642480763932e-03  9.7620025089066795e-02  -6.0754404439969621e-03  1.0917636378957438e-02  1.3317963183030938e-02  2.7651426325234554e-02  3.4149679838661684e-02  4.3641311505138988e-02  3.7366629208696947e-02  1.5677805634231972e-02  -6.2511516497741246e-04  8.5342377842342637e-02  5.4604083592673373e-02  5.8510802601361440e-02  4.7224308578842952e-02  5.5410960542592175e-02  7.1244054719295694e-02  6.2074229534435088e-02  8.1592718562521177e-02  6.7760734670636549e-02  9.0098132967856320e-02  7.3374444702767411e-02  9.7088263769270974e-02  7.8671268951956266e-02  1.0280765068308098e-01  8.4321568124333557e-02  1.0826227795207202e-01  9.0312588794230486e-02  1.1251319753260058e-01  9.5598510844895693e-02  1.1614887007853263e-01  1.0153187072708388e-01  1.1895756845836619e-01  1.0668238282564317e-01  1.2091430912159717e-01  1.1043213311958189e-01  1.0624258721160089e-01  1.1408629748942604e-01  1.2064071785718858e-01  1.1218482113630127e-01  1.1798525132343429e-01  1.1127575037916852e-01  1.5825714128959389e-01  1.1277518375827598e-01  1.0762782742296163e-01  7.7990287506178119e-02  9.5479390972977488e-02  -2.6026911879296056e-02  -4.0799015446343158e-02  -3.6287271620591581e-02  -5.7502785617673149e-02  -6.4524678481846412e-02  -8.3846795019423243e-02  -1.0050439575826767e-01  -1.1629642235736606e-01  -1.4578035595448083e-01  -1.5232694462231522e-01  -1.9555120376538745e-01  -1.8905756855555611e-01  -2.4549563639063540e-01  -2.2602891779725118e-01  -3.0101955217764964e-01  -2.6411154305039874e-01  -3.2633865195701167e-01  -2.8128058590235877e-01  -3.4464242653311311e-01  -3.0519520235046077e-01  -3.5500081554164081e-01  -3.1373276450331439e-01  -3.5578568068224192e-01  -3.1574212846790606e-01  -3.5039529763371791e-01  -3.1321920975071599e-01  -3.4168673938312910e-01  -3.0806082294362475e-01  -2.6938485156253617e-01  -2.7890570485901001e-01  -2.7654400561582992e-01  -3.0111032483920125e-01  -2.7279165515770148e-01  -2.9284175235180826e-01  -2.6774055952768405e-01  -2.8411852016801331e-01  -2.6195719155944514e-01  -2.4756370606747696e-01  -2.7877841118986224e-01  -2.5589238408218745e-01  -2.6703797459576151e-01  -2.4891666591414846e-01  -2.3597428705829146e-01  -2.3135511888232249e-01  -2.4209046911222371e-01  -2.2654021406376829e-01  -2.3468094765123315e-01  -2.2121784399585970e-01  -7.2177499878912046e-02  -2.2753657568705837e-01  -2.1590729677522244e-01  -2.0747974325584648e-01  -2.0370978191590422e-01  -2.1081679950917534e-01  -1.9970389902971647e-01  -2.0562250816057318e-01  -1.9545558692306206e-01  -3.1645835273768191e-01  -2.1280852492864069e-01  -1.8552121267730137e-01  -3.8995248402831517e-01  -2.0106148931515261e-01  -1.9115737718222231e-01  -1.8551957858336293e-01  -1.8195374506528272e-01  -1.8660827895773188e-01  -1.7822107281095476e-01  -1.8191284730137092e-01  -1.7422674046487366e-01  -1.7012858579827822e-01  -1.6693273886598189e-01  -1.7012640202061932e-01  -1.6338179303519171e-01  -2.1766008917320670e-01  -1.6585601324864502e-01  -1.5964532786648486e-01  -4.0160938683924724e-01  -1.1695580614381862e-01  -1.9458959194838207e-01  -3.7797075679508108e-01  -1.6154632990803444e-01  -1.5560758866834537e-01  -1.5376426625216666e-01  -1.4980730769280742e-01  -1.5163060005402934e-01  -1.4599787854812249e-01  -1.4407308663468843e-01  -1.4056778808122616e-01  -1.4206454248157518e-01  -1.3690412287860876e-01  -3.0758824417876907e-01  -1.3802421131910039e-01  -1.3302833154291965e-01  -1.6266069204246789e-01  -2.4640805391850507e-01  1.0694391354300112e-01  -2.8454931370743614e-01  -1.3188116041314341e-01  -1.2818359608844027e-01  -1.2904274821057593e-01  -1.2436430386632212e-01  1.0481580130584613e-01  1.0104218065445757e-01  9.4088572483826280e-02  9.1977995588095926e-02  8.1132974025428517e-02  8.1250562626713874e-02  -1.2480185499078646e-01  -1.2032775153380131e-01  2.4471309669103627e-02  -1.1976690579369276e-01  -1.1587281465019561e-01  -1.1634636940961077e-01  -1.1190812300284887e-01  1.6956115603971550e-01  -5.8239384365409770e-02  -2.1609310106364188e-01  5.9065642653993375e-02  6.7200826939434036e-02  7.0304079757335297e-02  4.4632348648957314e-02  9.7780086997604543e-02  8.7348716495376039e-02  7.9036178554096073e-02  6.0493385419295366e-02  7.1686271033163745e-02  5.3320105041402444e-02  6.6169149751143685e-02  4.9304278465441949e-02  6.2601862474788147e-02  4.8699010240292079e-02  6.0898270462302277e-02  5.0564524633926966e-02  5.9937410266959451e-02  5.3767885437245894e-02  5.8618695970733083e-02  5.6825319026722859e-02  5.5431294190294744e-02  5.8115276737985735e-02  4.9650213117324156e-02  5.6520204096547198e-02  4.1280303328691155e-02  5.2577019162818268e-02  3.2278265045057507e-02  4.7500596155402044e-02  2.3704638614882475e-02  -1.1216819161104639e-01  -1.0782113627992290e-01  -1.0734953193826730e-01  -1.0346526549046013e-01  -1.0361024124003888e-01  -9.9355039657834890e-02  4.2509039039088287e-02  1.8089220672728314e-02  3.7143575656326193e-02  1.5357468295080473e-02  3.878177481310