<?xml version="1.0"?>
<VTKFile type="UnstructuredGrid"  version="0.1"  >
<UnstructuredGrid>
<Piece  NumberOfPoints="2945" NumberOfCells="5525">
<Points>
<DataArray  type="Float64"  NumberOfComponents="3"  format="ascii">0 0.1 0  0.95 0.1 0  1 0.1 0  1 0 0  1.5 0 0  3 0 0  3 0.3 0  0 0.3 0  0.0197424558707114 0.1 0  0.03915669042224804 0.1 0  0.05824816022699029 0.1 0  0.07702223050332387 0.1 0  0.09548417327144595 0.1 0  0.1136391897583987 0.1 0  0.1314923700144587 0.1 0  0.1490487330862866 0.1 0  0.1663132263225292 0.1 0  0.1832906857273058 0.1 0  0.1999858946008978 0.1 0  0.216403545770297 0.1 0  0.2325482404045023 0.1 0  0.2484245348165176 0.1 0  0.2640368740372501 0.1 0  0.2793896589642241 0.1 0  0.2944872056237027 0.1 0  0.3093337469555254 0.1 0  0.3239334613687816 0.1 0  0.3382904528528069 0.1 0  0.3524087553122972 0.1 0  0.3662923366391824 0.1 0  0.3799451014768399 0.1 0  0.393370886920506 0.1 0  0.4065734648871676 0.1 0  0.419556546320114 0.1 0  0.4323237821343415 0.1 0  0.4448787573056132 0.1 0  0.4572250047274954 0.1 0  0.4693659926332938 0.1 0  0.4813051343276231 0.1 0  0.4930457849308193 0.1 0  0.5045912455271677 0.1 0  0.5159447600209797 0.1 0  0.5271095174127136 0.1 0  0.5380886618453393 0.1 0  0.5488852725463512 0.1 0  0.5595023868312478 0.1 0  0.5699429904313016 0.1 0  0.5802100167387366 0.1 0  0.5903063508274641 0.1 0  0.6002348329443006 0.1 0  0.6099982499579832 0.1 0  0.6195993483501782 0.1 0  0.6290408246013842 0.1 0  0.6383253354321616 0.1 0  0.6474554910757137 0.1 0  0.6564338522440513 0.1 0  0.6652629482939147 0.1 0  0.6739452579188948 0.1 0  0.6824832240165607 0.1 0  0.6908792415022103 0.1 0  0.6991356755989045 0.1 0  0.7072548438546967 0.1 0  0.7152390281534421 0.1 0  0.7230904746196039 0.1 0  0.7308113906759266 0.1 0  0.7384039435269326 0.1 0  0.7458702676581656 0.1 0  0.7532124631720397 0.1 0  0.7604325921167397 0.1 0  0.7675326856666862 0.1 0  0.7745147374421916 0.1 0  0.7813807123989068 0.1 0  0.7881325374362798 0.1 0  0.7947721131625659 0.1 0  0.8013013031866276 0.1 0  0.8077219449067021 0.1 0  0.8140358419942376 0.1 0  0.8202447685401882 0.1 0  0.8263504700910924 0.1 0  0.8323546643163114 0.1 0  0.8382590362474568 0.1 0  0.8440652473522128 0.1 0  0.8497749272799842 0.1 0  0.8553896837646281 0.1 0  0.8609110933285474 0.1 0  0.866340708855119 0.1 0  0.8716800550492284 0.1 0  0.8769306339052932 0.1 0  0.8820939206038667 0.1 0  0.8871713655604893 0.1 0  0.8921643975475726 0.1 0  0.8970744196575535 0.1 0  0.9019028106970642 0.1 0  0.9066509291259979 0.1 0  0.9113201098984042 0.1 0  0.9159116634553873 0.1 0  0.9204268818729691 0.1 0  0.9248670319440222 0.1 0  0.9292333656649013 0.1 0  0.9335271075812669 0.1 0  0.9377494640511216 0.1 0  0.941901623463222 0.1 0  0.9459847526686701 0.1 0  0.9538461538461205 0.1 0  0.9576923076922409 0.1 0  0.9615384615384381 0.1 0  0.9653846153846337 0.1 0  0.9692307692307542 0.1 0  0.9730769230768747 0.1 0  0.9769230769229952 0.1 0  0.9807692307691157 0.1 0  0.9846153846152361 0.1 0  0.9884615384614317 0.1 0  0.9923076923076356 0.1 0  0.9961538461538395 0.1 0  1 0.09591793123533533 0  1 0.09133596463859224 0  1 0.08619288104391448 0  1 0.08041996484521211 0  1 0.07394008421771697 0  1 0.06666666567302955 0  1 0.05850252932209174 0  1 0.04933859630113544 0  1 0.03905242821848202 0  1 0.02750659386753798 0  1 0.01454683679239736 0  1.015625 0 0  1.03125 0 0  1.046875 0 0  1.0625 0 0  1.078125 0 0  1.09375 0 0  1.109375 0 0  1.125 0 0  1.140625 0 0  1.15625 0 0  1.171875 0 0  1.1875 0 0  1.203125 0 0  1.21875 0 0  1.234375 0 0  1.25 0 0  1.265625 0 0  1.28125 0 0  1.296875 0 0  1.3125 0 0  1.328125 0 0  1.34375 0 0  1.359375 0 0  1.375 0 0  1.390625 0 0  1.40625 0 0  1.421875 0 0  1.4375 0 0  1.453125 0 0  1.46875 0 0  1.484375 0 0  1.515920751924515 0 0  1.531989369316721 0 0  1.54820720925872 0 0  1.564575665560501 0 0  1.581096138674279 0 0  1.597770029901263 0 0  1.614598783332311 0 0  1.631583831055205 0 0  1.64872661129721 0 0  1.666028606716533 0 0  1.683491276608443 0 0  1.701116134125304 0 0  1.718904673324128 0 0  1.736858414799339 0 0  1.754978895814663 0 0  1.773267661782904 0 0  1.791726281103402 0 0  1.810356325314689 0 0  1.8291593848892 0 0  1.848137076690385 0 0  1.867291007717254 0 0  1.886622833871288 0 0  1.90613418642363 0 0  1.925826753299799 0 0  1.945702199101513 0 0  1.96576223584749 0 0  1.986008569283268 0 0  2.006442931928877 0 0  2.02706707547783 0 0  2.047882750887917 0 0  2.06889175187935 0 0  2.090095860038271 0 0  2.111496891648636 0 0  2.133096679109554 0 0  2.154897066851056 0 0  2.176899916687499 0 0  2.199107102752146 0 0  2.22152053937028 0 0  2.244142122958061 0 0  2.266973806444078 0 0  2.290017523268154 0 0  2.313275249499252 0 0  2.336748971745516 0 0  2.360440702338606 0 0  2.384352453384031 0 0  2.408486280477412 0 0  2.432844240041185 0 0  2.457428414757088 0 0  2.482240901796653 0 0  2.507283830121838 0 0  2.532559332080812 0 0  2.558069568787417 0 0  2.583816724966441 0 0  2.60980299606584 0 0  2.636030600971886 0 0  2.662501790984011 0 0  2.689218818279327 0 0  2.716183964547616 0 0  2.743399548861297 0 0  2.77086788244719 0 0  2.798591312896326 0 0  2.826572223178268 0 0  2.854812990138617 0 0  2.883316031690714 0 0  2.912083780657189 0 0  2.941118704633482 0 0  2.970423276998917 0 0  3 0.02999999999994495 0  3 0.05999999999987042 0  3 0.089999999999783 0  3 0.119999999999701 0  3 0.149999999999619 0  3 0.179999999999692 0  3 0.2099999999997737 0  3 0.2399999999998511 0  3 0.2699999999999185 0  2.970138294777171 0.3 0  2.940375666438236 0.3 0  2.910711782853056 0.3 0  2.881146331305122 0.3 0  2.851678975030285 0.3 0  2.822309388626621 0.3 0  2.793037250095074 0.3 0  2.76386223529133 0.3 0  2.734784017903872 0.3 0  2.705802289276642 0.3 0  2.676916713794697 0.3 0  2.648126987654635 0.3 0  2.619432780406184 0.3 0  2.590833779385199 0.3 0  2.562329669847737 0.3 0  2.533920134950189 0.3 0  2.505604855727852 0.3 0  2.477383539822502 0.3 0  2.449255847639465 0.3 0  2.421221492569094 0.3 0  2.393280152486815 0.3 0  2.36543151914496 0.3 0  2.337675285481809 0.3 0  2.310011142385583 0.3 0  2.282438797441587 0.3 0  2.254957931061538 0.3 0  2.227568248063605 0.3 0  2.200269436651085 0.3 0  2.173061204949961 0.3 0  2.145943251515011 0.3 0  2.118915272469994 0.3 0  2.091976978084957 0.3 0  2.065128060700849 0.3 0  2.038368218849433 0.3 0  2.01169717777258 0.3 0  1.985114624111908 0.3 0  1.958620267850966 0.3 0  1.93221382054972 0.3 0  1.905894991850698 0.3 0  1.879663489459713 0.3 0  1.853519019126419 0.3 0  1.827461291053897 0.3 0  1.801490031354372 0.3 0  1.775604937580312 0.3 0  1.74980572560258 0.3 0  1.724092118631866 0.3 0  1.698463829173586 0.3 0  1.672920575782554 0.3 0  1.647462076974085 0.3 0  1.622088043536933 0.3 0  1.5967981978949 0.3 0  1.571592267767068 0.3 0  1.546469970305736 0.3 0  1.521431023814044 0.3 0  1.496475156230927 0.3 0  1.471602093687753 0.3 0  1.446811560490646 0.3 0  1.422103279101731 0.3 0  1.397476971708191 0.3 0  1.37293238939876 0.3 0  1.348469231419202 0.3 0  1.324087248732772 0.3 0  1.299786165921677 0.3 0  1.275565710847046 0.3 0  1.251425617644257 0.3 0  1.227365618676339 0.3 0  1.203385446174014 0.3 0  1.179484853067473 0.3 0  1.155663548773374 0.3 0  1.131921292279077 0.3 0  1.108257802159295 0.3 0  1.084672829009693 0.3 0  1.061166115303374 0.3 0  1.037737392995421 0.3 0  1.01438640299116 0.3 0  0.991112899770314 0.3 0  0.9679166155523955 0.3 0  0.944797284182564 0.3 0  0.921754678526042 0.3 0  0.8987885143602501 0.3 0  0.8758985548820624 0.3 0  0.8530845484099929 0.3 0  0.8303462351786988 0.3 0  0.8076833651172373 0.3 0  0.7850956864865304 0.3 0  0.7625829601354557 0.3 0  0.7401449314598274 0.3 0  0.717781337993959 0.3 0  0.6954919649675473 0.3 0  0.6732765357561226 0.3 0  0.6511348120768439 0.3 0  0.6290665642016573 0.3 0  0.6070715355430467 0.3 0  0.5851494825775325 0.3 0  0.5633001690203812 0.3 0  0.5415233562273221 0.3 0  0.5198187909431873 0.3 0  0.4981862401387795 0.3 0  0.4766254686134248 0.3 0  0.4551362360485234 0.3 0  0.4337182975262159 0.3 0  0.4123714223228037 0.3 0  0.3910953802377493 0.3 0  0.3698899313205595 0.3 0  0.3487548463710963 0.3 0  0.3276898864081783 0.3 0  0.3066948129116018 0.3 0  0.2857694003037476 0.3 0  0.2649134227095047 0.3 0  0.2441266417321288 0.3 0  0.2234088223399122 0.3 0  0.2027597568977288 0.3 0  0.1821792020676698 0.3 0  0.1616669305402443 0.3 0  0.1412227158799362 0.3 0  0.12084633013886 0.3 0  0.1005375673448281 0.3 0  0.08029618164595353 0.3 0  0.06012194778526769 0.3 0  0.04001466495039718 0.3 0  0.01997408913631205 0.3 0  0 0.2800000000000553 0  0 0.2600000000001105 0  0 0.2400000000001658 0  0 0.2200000000002211 0  0 0.2000000000002764 0  0 0.1800000000002244 0  0 0.1600000000001691 0  0 0.140000000000115 0  0 0.1200000000000564 0  1.133778471000506 0.01219539743990768 0  1.003741919047894 0.09354664821474232 0  0.9559421147150347 0.1035858189992458 0  0.9313792160389045 0.1037365237938103 0  0.9788461538460573 0.1033060829993555 0  0.9090102438250753 0.1037269304984056 0  0.8846304212778655 0.1043349840723655 0  0.8581503885465881 0.104741932962923 0  0.8286416220145676 0.1052762843984476 0  0.7982741772533339 0.1053575624517407 0  0.7708789559342691 0.1060290465840416 0  0.741870349714261 0.1078220590984258 0  0.7112469360040695 0.10685702926368 0  0.6783901541417233 0.1079959711853378 0  0.642884733623195 0.1075561996086514 0  0.6056235042367955 0.1085956039602543 0  0.5647007593786924 0.1083187281660325 0  1.1953125 0.01353164693413185 0  1.258148737344733 0.01268350115427042 0  1.320087046516829 0.01426312402966312 0  1.383495130751951 0.01432665475473204 0  1.4453125 0.01315663539200989 0  1.50886768312388 0.01395488397722681 0  0.9942307692307371 0.103330866937657 0  1.119309781943483 0.2802014914557878 0  1.572831235329714 0.01707210522554785 0  1.637611634353954 0.01209340368483431 0  1.709661292005932 0.0146870244871893 0  1.006561890631532 0.07068055446055937 0  1.784793444007901 0.01499371444634687 0  1.855459587353174 0.0
[...]
<PointData  Scalars="pressure"> 
<DataArray  type="Float64"  Name="pressure"  format="ascii">1.3601586264272628e-01  -1.7398908641537328e-01  -2.0832269840240425e-01  -1.5383174212315959e-01  -3.2386108512303433e-02  0.0000000000000000e+00  0.0000000000000000e+00  1.3602723144005605e-01  1.3009313734465566e-01  1.2426875787655374e-01  1.1854105343376989e-01  1.1290839898745812e-01  1.0736917462123696e-01  1.0192182675857364e-01  9.6564793027880180e-02  9.1296532174349285e-02  8.6115575473681483e-02  8.1020373846180424e-02  7.6009477777412571e-02  7.1081473408098686e-02  6.6234889395832219e-02  6.1468341472733459e-02  5.6780399740146946e-02  5.2169713742272888e-02  4.7634865884331468e-02  4.3174564368408240e-02  3.8787408506750706e-02  3.4472136888231052e-02  3.0227319215447548e-02  2.6051737453556968e-02  2.1944241254454631e-02  1.7903238708537102e-02  1.3927633434452285e-02  1.0016078083100673e-02  6.1674270995098947e-03  2.3802940706947992e-03  -1.3465001216739080e-03  -5.0142495876596858e-03  -8.6241398535807905e-03  -1.2177254907025623e-02  -1.5675218390627622e-02  -1.9119024170757039e-02  -2.2509850388080233e-02  -2.5848963267801565e-02  -2.9137691831214924e-02  -3.2377096666797903e-02  -3.5568508664849924e-02  -3.8713050116726419e-02  -4.1812089185811363e-02  -4.4866742421118322e-02  -4.7878211598331125e-02  -5.0847679760115977e-02  -5.3776477068088517e-02  -5.6665651088951538e-02  -5.9516621878789408e-02  -6.2330413824632426e-02  -6.5108284139480763e-02  -6.7851669790392394e-02  -7.0561372056206453e-02  -7.3238917355426272e-02  -7.5885678312708538e-02  -7.8501944166073492e-02  -8.1089746684993372e-02  -8.3650169796868928e-02  -8.6184056812208490e-02  -8.8693683005534402e-02  -9.1178803577851686e-02  -9.3640580674713897e-02  -9.6081343708131747e-02  -9.8501725064936527e-02  -1.0090352238134810e-01  -1.0328659705176028e-01  -1.0565207749054756e-01  -1.0800291337901853e-01  -1.1033897922574558e-01  -1.1266183296539652e-01  -1.1497257473859991e-01  -1.1727246724100229e-01  -1.1956243075269329e-01  -1.2184417926419572e-01  -1.2411822028309505e-01  -1.2638588212301496e-01  -1.2864937797964568e-01  -1.3090951198446502e-01  -1.3316704781559410e-01  -1.3542417402286575e-01  -1.3768217586260478e-01  -1.3994211858444619e-01  -1.4220516437168210e-01  -1.4447585358684648e-01  -1.4675293482532184e-01  -1.4903949580841211e-01  -1.5133712930406112e-01  -1.5365009568284463e-01  -1.5597971687719339e-01  -1.5832856789632849e-01  -1.6070381178428259e-01  -1.6310697318331913e-01  -1.6554210712270870e-01  -1.6802076373420433e-01  -1.7055250898547830e-01  -1.7304004838692416e-01  -1.7628704204704063e-01  -1.8098889460391546e-01  -1.8695516883904373e-01  -1.9002856285736522e-01  -1.9155743616353624e-01  -1.9166188974100332e-01  -1.9072166107008204e-01  -1.8900044745340239e-01  -1.8680956071716648e-01  -1.8438643118914408e-01  -1.8187492545848563e-01  -1.8099554509446300e-01  -1.7016102810541722e-01  -1.9445587728561534e-01  -1.7487581461065826e-01  -1.6802295963859912e-01  -1.6311623000540182e-01  -1.5986036259652911e-01  -1.5741565819162504e-01  -1.5551281651740104e-01  -1.5414053757417437e-01  -1.5331222258758825e-01  -1.5307541289203747e-01  -1.5347547491093844e-01  -1.5428268704267914e-01  -1.5464813074031661e-01  -1.5440887948358817e-01  -1.5368922398334708e-01  -1.5257657423386101e-01  -1.5111420071027287e-01  -1.4928501985905474e-01  -1.4707841996020712e-01  -1.4452671589454083e-01  -1.4164556923816696e-01  -1.3844234178314371e-01  -1.3493869669328673e-01  -1.3114941637024224e-01  -1.2708677657739212e-01  -1.2277200188592188e-01  -1.1822688847708815e-01  -1.1347096246190295e-01  -1.0852133980006635e-01  -1.0340301067243711e-01  -9.8132030241197168e-02  -9.2738550581558291e-02  -8.7248028892842819e-02  -8.1677695835692440e-02  -7.6060987731527446e-02  -7.0417093975537789e-02  -6.4778834641309443e-02  -5.9168562424049900e-02  -5.3608738952523015e-02  -4.8129322926554238e-02  -4.2751205114171222e-02  -3.7497365089053589e-02  -2.7345065337021190e-02  -2.2451592624389834e-02  -1.7713830589639497e-02  -1.3168624856095795e-02  -8.8136614452719326e-03  -4.6718648015297033e-03  -7.5305409054124764e-04  2.9405265488289620e-03  6.3728941892858869e-03  9.5631476254604639e-03  1.2511901037792433e-02  1.5216673607170323e-02  1.7677419919787964e-02  1.9902972916504617e-02  2.1900067289504284e-02  2.3680283512850581e-02  2.5255580618934844e-02  2.6629811864818508e-02  2.7815090342060460e-02  2.8841294854413189e-02  2.9698367266594652e-02  3.0413002929505033e-02  3.0997403373977252e-02  3.1457693322172714e-02  3.1814698613289581e-02  3.2067412719721494e-02  3.2244386981203091e-02  3.2337344786681647e-02  3.2362569173156185e-02  3.2323420188671563e-02  3.2225977093825402e-02  3.2077585906794832e-02  3.1885672906706151e-02  3.1653033411232642e-02  3.1379450083266959e-02  3.1070520619673199e-02  3.0726608058107362e-02  3.0349961304763997e-02  2.9940196068651649e-02  2.9498102738047705e-02  2.9023452590494606e-02  2.8515895912195343e-02  2.7974199979211242e-02  2.7397436153976579e-02  2.6784244939347945e-02  2.6134052433175559e-02  2.5444150643608183e-02  2.4713236529358498e-02  2.3941084405420105e-02  2.3124351389888428e-02  2.2260075007745683e-02  2.1353363764514390e-02  2.0394260663202886e-02  1.9391414063559806e-02  1.8337246762750968e-02  1.7228834362223031e-02  1.6076740059561379e-02  1.4867923686383551e-02  1.3611738427609403e-02  1.2304922180193236e-02  1.0946288448029052e-02  9.5362201875805307e-03  8.0757176310401173e-03  6.5690097849773373e-03  5.0066585651844676e-03  3.4051944721720379e-03  1.7487512342322306e-03  0.0000000000000000e+00  0.0000000000000000e+00  0.0000000000000000e+00  0.0000000000000000e+00  0.0000000000000000e+00  0.0000000000000000e+00  0.0000000000000000e+00  0.0000000000000000e+00  0.0000000000000000e+00  1.8746635402160433e-03  3.6300273647681359e-03  5.3587734460881159e-03  7.0371781707174435e-03  8.6682118255575775e-03  1.0250678959216691e-02  1.1783847612350521e-02  1.3266201747924072e-02  1.4695523925701226e-02  1.6069989762799140e-02  1.7386969565370020e-02  1.8643771784849633e-02  1.9836766506722166e-02  2.0963251538484402e-02  2.2020141921813976e-02  2.2999398756688241e-02  2.3903447730599672e-02  2.4718200298644247e-02  2.5443323081341937e-02  2.6070323727081502e-02  2.6592944098213011e-02  2.7004721250061151e-02  2.7299415545996224e-02  2.7466639354975945e-02  2.7506755574523169e-02  2.7407820159112826e-02  2.7161881266209373e-02  2.6766247800634350e-02  2.6210331712353034e-02  2.5490383915157545e-02  2.4600613981401700e-02  2.3537044673281906e-02  2.2303269152108535e-02  2.0892835372363489e-02  1.9276074463611678e-02  1.7491307248460021e-02  1.5514840044884305e-02  1.3346402922236461e-02  1.0985448085281750e-02  8.4396031278139005e-03  5.6975911753880271e-03  2.7712533806491051e-03  -3.4629224721153672e-04  -3.6448143978050785e-03  -7.1352617997978993e-03  -1.0797660357088307e-02  -1.4649962360480471e-02  -1.8678177546644290e-02  -2.2869501821302991e-02  -2.7237944050187143e-02  -3.1759070957108823e-02  -3.6422436804333762e-02  -4.1230256051620333e-02  -4.6169332948351682e-02  -5.1219159240111785e-02  -5.6372312937261401e-02  -6.1609619566095848e-02  -6.6902032058430677e-02  -7.2221274206822533e-02  -7.7553492173381242e-02  -8.2881837282204163e-02  -8.8116639255269039e-02  -9.3247605427972613e-02  -9.8253918937460494e-02  -1.0307062617701455e-01  -1.0763270847370299e-01  -1.1191926039518846e-01  -1.1588100079731126e-01  -1.1945881593504570e-01  -1.2261476387093483e-01  -1.2520378677862631e-01  -1.2731657892053666e-01  -1.2884582573569986e-01  -1.2970068553233555e-01  -1.2972400647764323e-01  -1.2908677922650239e-01  -1.2762192427353686e-01  -1.2543130771211461e-01  -1.2267431271448388e-01  -1.1909396857025648e-01  -1.1498448762670579e-01  -1.1038583428523621e-01  -1.0542607274764465e-01  -1.0013616008468991e-01  -9.4562561614434035e-02  -8.8767392116022054e-02  -8.2819822831249543e-02  -7.6743098419884567e-02  -7.0551499358189176e-02  -6.4293818008062539e-02  -5.7973575391180442e-02  -5.1615429591875116e-02  -4.5228509143803865e-02  -3.8820541449679918e-02  -3.2400266592560560e-02  -2.5977298606283658e-02  -1.9553975015288421e-02  -1.3134522602450431e-02  -6.7228450147293088e-03  -3.2244623807114737e-04  6.0650435125935622e-03  1.2439354766826220e-02  1.8797706730810670e-02  2.5139691125410459e-02  3.1464086328879225e-02  3.7770679906570480e-02  4.4058914635571052e-02  5.0327837195801035e-02  5.6577977786179540e-02  6.2808320013299154e-02  6.9019231854426086e-02  7.5210386356139775e-02  8.1381601688213387e-02  8.7533033641586627e-02  9.3664499660002523e-02  9.9776028590922133e-02  1.0586761843355430e-01  1.1193928501171678e-01  1.1799105700683069e-01  1.2402295514256274e-01  1.3003500476396182e-01  1.3602720009826935e-01  1.3602673352987074e-01  1.3602556702303878e-01  1.3602375502975797e-01  1.3602154960558699e-01  1.3601934769036489e-01  1.3601752900233438e-01  1.3601637141175282e-01  1.3601590286026038e-01  -1.4539481974241292e-01  -1.7841171565339206e-01  -1.8526958442929542e-01  -1.6699913448586362e-01  -1.8696874794451124e-01  -1.5496658703807109e-01  -1.4345056541786774e-01  -1.3212368214703565e-01  -1.2050086315808425e-01  -1.0930524642703732e-01  -9.9693444630851530e-02  -8.9884396070477421e-02  -7.9820551738127354e-02  -6.9282454729361440e-02  -5.8102715458666097e-02  -4.6538834405501384e-02  -3.3972404787800795e-02  -1.3292256800402766e-01  -1.1576175971707463e-01  -9.5649127560711658e-02  -7.3228896968332499e-02  -5.1162716523843077e-02  -2.9942088868059574e-02  -1.8020496234708916e-01  -1.2342928401016989e-01  -1.1440652698075140e-02  3.8112467875339525e-03  1.6055090562405304e-02  -1.5928070255613494e-01  2.4369678335230901e-02  2.8928147949298100e-02  -2.0924419914896176e-02  3.1452966345912027e-02  -1.0917405187111347e-01  -8.9992332622805732e-02  3.2240589960094823e-02  -6.8991416942824985e-02  -6.6115889573314744e-03  -4.4002932792061397e-02  3.1903668499425629e-02  7.4288163865997865e-03  -1.5136162361492095e-01  3.0832565377892723e-02  -2.0531128084954286e-02  -1.2875023989584047e-01  2.3536986150730379e-02  2.9211232166937443e-02  1.2451941062844626e-03  4.1276439661038680e-02  9.5507172073837510e-03  2.7051680199664190e-02  1.6570413212084321e-02  -1.2648021241534949e-01  2.4206332695408096e-02  5.9123972120235943e-02  2.1549633891620065e-02  -1.1695891538880702e-01  -1.0223383040075393e-01  2.4975353427065639e-02  2.0865318440341656e-02  7.9012100916652631e-02  9.3812964425729062e-02  -8.8828054271712104e-03  1.7758406495627783e-02  1.4079138895046011e-02  -8.0072373187849863e-02  2.6881758808485652e-02  2.7278029386874760e-02  -6.0885880880282385e-02  -1.7451293825194900e-01  -1.9103489003628144e-01  -4.2195896619007751e-02  2.6238400301037270e-02  1.0277592161697539e-02  -1.7217401504566274e-02  2.3374062992552059e-02  1.5443968482094379e-02  2.0336975063569605e-02  4.7193885827470271e-02  1.6681833852139963e-02  6.5812181317826290e-02  1.0269127626414852e-01  8.4602626895310951e-02  1.2478262261390429e-02  1.3097869521403674e-01  1.5914281530038142e-03  1.1032837550763080e-01  -1.5431487348858750e-01  7.9571398052618227e-03  5.6389427316405026e-03  -1.6518558171952752e-01  -1.5355474070158617e-01  -1.2908948563313608e-01  -1.1718764274410846e-01  -9.1807409100083989e-02  -2.9143454574666387e-02  -3.8284176421335969e-03  2.9041409489020668e-02  -3.3805114760825726e-02  -5.8407677621749449e-02  -7.9147706887640806e-02  -1.0004982366616368e-01  6.8657886599136381e-02  4.9982956942957069e-02  2.7361424487643726e-02  2.5000978981392783e-02  3.2813358412085721e-02  2.2703580444112914e-02  1.1486851417706016e-01  2.5719880265659547e-02  2.8201659266965395e-02  1.5609499605284179e-02  3.0088329463247625e-02  1.3094720625682213e-01  3.1447305592776073e-02  6.1499587859901333e-04  3.2189941102567413e-02  3.2030955039359849e-02  -2.0453632673450000e-02  3.0437442349157923e-02  -1.4063301676579282e-02  2.6942166458148512e-02  2.0574238921339416e-02  1.0534018737615159e-02  -2.7609822303369193e-02  -2.9124826643732345e-03  1.3368052887101887e-03  -4.0268093613813991e-02  -5.2361432347545395e-02  -6.3971377965586967e-02  -7.4278031184407775e-02  -8.5112415267854638e-02  -9.4912953391808857e-02  -1.0475341653488156e-01  -1.1617793779359528e-01  -1.3967934435677229e-01  -1.2759000972337073e-01  -1.3896999901261695e-01  -1.5032187011102402e-01  -1.2488067596664409e-01  -1.6171199330494446e-01  -8.4841159027106691e-02  -1.0555293730232905e-01  -6.3065521689198087e-02  -4.0452623051392744e-02  1.3137179380561970e-01  -1.8245089577045479e-01  1.6672294932108757e-03  1.2136624138080628e-01  4.4381480466668365e-03  -1.5403402924097503e-01  1.3531271728518084e-03  1.3150382861362925e-01  -1.5398310622900174e-01  -1.5364031313063362e-01  -1.5314495035197256e-01  -1.5368282768636099e-01  -1.5317363327357439e-01  -1.5403197426525989e-01  -1.5339303673117577e-01  -1.5447428030100110e-01  -1.5369621390157942e-01  -1.5476677133250250e-01  -1.5379196327797109e-01  -1.5463390654451908e-01  -1.5344534150803876e-01  -1.5396311366624693e-01  -1.5262002500420613e-01  -1.5289256932736847e-01  -1.5134065370014993e-01  -1.5150885366699932e-01  -1.4979378086495543e-01  -1.4976270273425374e-01  -1.4769230414321982e-01  -1.5166071642613163e-01  -1.4780106593154904e-01  -1.4533371240842324e-01  -1.4953625409456564e-01  -1.5185063516189576e-01  -1.4512137328247940e-01  -1.4241372395970800e-01  -1.4242027654842440e-01  -1.3922191850818291e-01  -1.3909795259251964e-01  -1.3570256768612968e-01  -1.3538565982959153e-01  -1.3197879069159704e-01  -1.3127451351871619e-01  -1.2734471767941538e-01  -1.2657288431724059e-01  -1.2257577342568791e-01  -1.2154881045193515e-01  -1.1761650948436711e-01  -1.1624000826823715e-01  -1.1165296694105797e-01  -1.1049458899568575e-01  -1.0646503018073826e-01  -1.0463798284720013e-01  -1.0064154061464192e-01  -9.8514513876729562e-02  -9.4763323352198239e-02  -9.2235276069420807e-02  -8.8622572366283514e-02  -8.5824867070078650e-02  -1.4895026196800140e-01  -1.5127118424511804e-01  -8.2355632411714341e-02  -7.9051762922453722e-02  -7.6151816384518720e-02  -7.2547200361133754e-02  -7.0079928450237042e-02  -6.6428634042038776e-02  -6.4063185881927526e-02  -6.0154662414392109e-02  -5.8177594659565075e-02  -5.3989065590782030e-02  -1.4186944537249227e-01  -5.2464315566637477e-02  -4.7966772886861388e-02  -4.6945539096390536e-02  -4.2179961934812195e-02  -4.1689583888097931e-02  -3.6658457119580393e-02  -1.4788599433619154e-01  -1.5040265608079800e-01  -1.5517330825396652e-01  -3.6645284424498263e-02  -3.1373837303910621e-02  -1.5398708521745352e-01  -3.1750185706346593e-02  -2.6361644547335607e-02  -2.7219193785118702e-02  -2.1673753437500217e-02  -2.2892483932879345e-02  -1.7263700763739055e-02  -1.3233078595930503e-01  -1.9062479086688969e-02  -1.3203168197395041e-02  -1.5137472004839916e-02  -9.3847445364376395e-03  -1.1580428911998697e-02  -5.8655676023738803e-03  -1.5196891603717494e-01  -1.1837807723154917e-01  -8.2517867054060293e-03  -2.6533946682864677e-03  -1.4625879275310733e-01  -1.4963942361475324e-01  -1.4373291478418329e-01  -1.0205642690959912e-01  -5.5001717362226626e-03  3.9401763235922513e-04  -2.6851699707386781e-03  3.1567715759956505e-03  -5.7104141370853033e-05  5.5580298294042553e-03  -3.1575094740925340e-02  3.2455251023374623e-03  -1.6187509012802657e-02  -4.9599679718202998e-02  2.4132067501585687e-03  7.7547222555814687e-03  1.0908398012702119e-02  1.2931380608551403e-02  9.8279576759970795e-03  1.4758297569133740e-02  1.1785535509911611e-02  1.6472796980479088e-02  1.3558089620486078e-02  1.7968256936126858e-02  1.5185741089080015e-02  1.9354502942686095e-02  1.6718598178822010e-02  2.0575119796521584e-02  1.8053297317712148e-02  2.1696374302230516e-02  1.9382077380070212e-02  2.2806487871606780e-02  2.0568092947407732e-02  2.3723144109553160e-02  2.1683055820953930e-02  2.4517167336072874e-02  2.2576406841067723e-02  2.5240559877441004e-02  -6.8867463456961500e-02  -8.4812657989440821e-02  2.3481335369798326e-02  2.5846016832105936e-02  2.4331323327042461e-02  2.6419965394638444e-02  -1.3818245684043973e-01  2.5081732035024600e-02  2.6886492964277732e-02  -1.0221161885480770e-01  -1.1977571147052757e-01  -1.4403836035600584e-01  -1.4532432077518326e-01  -1.5184949261188355e-01  -1.4899817903326021e-01  -1.5455974292998581e-01  -1.5154034142559156e-01  -1.5708571889246964e-01  -1.5338866731585044e-01  -1.5909028522906357e-01  -1.5474204384184792e-01  -1.6027760467663835e-01  -1.5516853491837138e-01  -1.6056030691623457e-01  -1.5492432481053864e-01  -1.6030913227155799e-01  -1.5436036108251558e-01  -1.5785043686014844e-01  -1.5173012447736148e-01  -1.5548311333384243e-01  -1.5009849909660097e-01  -1.5253941142434718e-01  -1.4731306008202416e-01  -1.4914807698514751e-01  -1.4417751854643904e-01  -1.4549842654930964e-01  -1.4085239360559867e-01  -1.4169131500562354e-01  -1.3726887996704831e-01  -1.4452269492131969e-01  -1.3618751691308309e-01  -1.3282460195220930e-01  -1.3356616220340173e-01  -1.2939227579768267e-01  -1.2985320473223508e-01  -1.2589499436370100e-01  -1.2628497123926313e-01  -1.2239306084410462e-01  -1.2535090610481084e-01  -1.2304492011495190e-01  -1.1889212927422298e-01  -1.1870391962321934e-01  -1.1513841723259452e-01  -1.1515220223649138e-01  -1.1156997893852011e-01  -1.1139312399859382e-01  -1.0796656567448029e-01  -1.0755507410559176e-01  -1.0432095092092242e-01  -1.5950053603074213e-01  -1.0373438858274141e-01  -1.0059341650522480e-01  -1.0095732935258354e-01  -9.7308025005432439e-02  -9.6869732227586755e-02  -9.3632320287004508e-02  -9.3136860995885667e-02  -8.9949452697191498e-02  -1.6547721279476069e-01  -1.5043536717374853e-01  -1.6455548730033157e-01  -1.6068620122500787e-01  -8.9301825559659306e-02  -8.6203812151568845e-02  -8.6740850098494568e-02  -8.2980239532645009e-02  -8.2426626291630292e-02  -7.9206390937467910e-02  -7.8592637489711500e-02  -7.5385070834203635e-02  -7.5988630464398466e-02  -7.2159411675487339e-02  -7.1464269355886401e-02  -6.8279429136515024e-02  -1.1157596776111899e-01  -6.7516627481225805e-02  -6.4407306538353887e-02  -1.5426831972617677e-01  -1.4915911207857918e-01  -9.7679351650468593e-02  -1.4600537407605074e-01  -6.3625498078168252e-02  -6.0428864615148938e-02  -6.1467261271541292e-02  -5.7240519898146922e-02  -5.6508969431493944e-02  -5.3156074387003267e-02  -5.3899974610444649e-02  -4.9802829763410029e-02  -4.9069342663419342e-02  -4.5714497733950567e-02  -1.3006835289106028e-01  -4.4993914159494448e-02  -4.1562669066901023e-02  -7.2544901657480385e-02  -1.1015958775419037e-01  -6.7672301351066846e-02  -1.2196031987704190e-01  -4.2306992775676310e-02  -3.8127250943986821e-02  -3.7400076307804224e-02  -3.3956849864075364e-02  2.5674348822875340e-02  2.7270946080440377e-02  2.6203814984538765e-02  2.7588089830266456e-02  2.6668358334551834e-02  2.7834110277022473e-02  -3.3078566275733884e-02  -2.9674639777375340e-02  -4.1632236862509220e-02  -3.0443468602548766e-02  -2.6182841669335193e-02  -2.5552138579590638e-02  -2.1954209303328850e-02  -1.5509374564289641e-01  -1.4360402718899695e-01  -9.6296488508949563e-02  2.3282931604792067e-02  2.7042964887305929e-02  2.8002171094304650e-02  1.5596151174484887e-02  2.7004259199309225e-02  2.8870239223915222e-02  2.8843983700685805e-02  2.8097291851195191e-02  2.8764427372693361e-02  2.8125244164190946e-02  2.8625994554224498e-02  2.8073973092266172e-02  2.8423588716466750e-02  2.7951913379470068e-02  2.8162690854439218e-02  2.7749457185028546e-02  2.7832147905476664e-02  2.7473851546281632e-02  2.7442580747193315e-02  2.7126826131221575e-02  2.6993089887547977e-02  2.6712095596958009e-02  2.6484889707703244e-02  2.6220687651818501e-02  2.5904854027344770e-02  2.5652363558254270e-02  2.5274619046787114e-02  2.5010432071182444e-02  2.4561992550846439e-02  -2.1324980962055463e-02  -1.7702338218467152e-02  -1.8067842828579997e-02  -1.3944559123866614e-02  -1.3381102176302496e