<?xml version="1.0"?>
<VTKFile type="UnstructuredGrid"  version="0.1"  >
<UnstructuredGrid>
<Piece  NumberOfPoints="2945" NumberOfCells="5525">
<Points>
<DataArray  type="Float64"  NumberOfComponents="3"  format="ascii">0 0.1 0  0.95 0.1 0  1 0.1 0  1 0 0  1.5 0 0  3 0 0  3 0.3 0  0 0.3 0  0.0197424558707114 0.1 0  0.03915669042224804 0.1 0  0.05824816022699029 0.1 0  0.07702223050332387 0.1 0  0.09548417327144595 0.1 0  0.1136391897583987 0.1 0  0.1314923700144587 0.1 0  0.1490487330862866 0.1 0  0.1663132263225292 0.1 0  0.1832906857273058 0.1 0  0.1999858946008978 0.1 0  0.216403545770297 0.1 0  0.2325482404045023 0.1 0  0.2484245348165176 0.1 0  0.2640368740372501 0.1 0  0.2793896589642241 0.1 0  0.2944872056237027 0.1 0  0.3093337469555254 0.1 0  0.3239334613687816 0.1 0  0.3382904528528069 0.1 0  0.3524087553122972 0.1 0  0.3662923366391824 0.1 0  0.3799451014768399 0.1 0  0.393370886920506 0.1 0  0.4065734648871676 0.1 0  0.419556546320114 0.1 0  0.4323237821343415 0.1 0  0.4448787573056132 0.1 0  0.4572250047274954 0.1 0  0.4693659926332938 0.1 0  0.4813051343276231 0.1 0  0.4930457849308193 0.1 0  0.5045912455271677 0.1 0  0.5159447600209797 0.1 0  0.5271095174127136 0.1 0  0.5380886618453393 0.1 0  0.5488852725463512 0.1 0  0.5595023868312478 0.1 0  0.5699429904313016 0.1 0  0.5802100167387366 0.1 0  0.5903063508274641 0.1 0  0.6002348329443006 0.1 0  0.6099982499579832 0.1 0  0.6195993483501782 0.1 0  0.6290408246013842 0.1 0  0.6383253354321616 0.1 0  0.6474554910757137 0.1 0  0.6564338522440513 0.1 0  0.6652629482939147 0.1 0  0.6739452579188948 0.1 0  0.6824832240165607 0.1 0  0.6908792415022103 0.1 0  0.6991356755989045 0.1 0  0.7072548438546967 0.1 0  0.7152390281534421 0.1 0  0.7230904746196039 0.1 0  0.7308113906759266 0.1 0  0.7384039435269326 0.1 0  0.7458702676581656 0.1 0  0.7532124631720397 0.1 0  0.7604325921167397 0.1 0  0.7675326856666862 0.1 0  0.7745147374421916 0.1 0  0.7813807123989068 0.1 0  0.7881325374362798 0.1 0  0.7947721131625659 0.1 0  0.8013013031866276 0.1 0  0.8077219449067021 0.1 0  0.8140358419942376 0.1 0  0.8202447685401882 0.1 0  0.8263504700910924 0.1 0  0.8323546643163114 0.1 0  0.8382590362474568 0.1 0  0.8440652473522128 0.1 0  0.8497749272799842 0.1 0  0.8553896837646281 0.1 0  0.8609110933285474 0.1 0  0.866340708855119 0.1 0  0.8716800550492284 0.1 0  0.8769306339052932 0.1 0  0.8820939206038667 0.1 0  0.8871713655604893 0.1 0  0.8921643975475726 0.1 0  0.8970744196575535 0.1 0  0.9019028106970642 0.1 0  0.9066509291259979 0.1 0  0.9113201098984042 0.1 0  0.9159116634553873 0.1 0  0.9204268818729691 0.1 0  0.9248670319440222 0.1 0  0.9292333656649013 0.1 0  0.9335271075812669 0.1 0  0.9377494640511216 0.1 0  0.941901623463222 0.1 0  0.9459847526686701 0.1 0  0.9538461538461205 0.1 0  0.9576923076922409 0.1 0  0.9615384615384381 0.1 0  0.9653846153846337 0.1 0  0.9692307692307542 0.1 0  0.9730769230768747 0.1 0  0.9769230769229952 0.1 0  0.9807692307691157 0.1 0  0.9846153846152361 0.1 0  0.9884615384614317 0.1 0  0.9923076923076356 0.1 0  0.9961538461538395 0.1 0  1 0.09591793123533533 0  1 0.09133596463859224 0  1 0.08619288104391448 0  1 0.08041996484521211 0  1 0.07394008421771697 0  1 0.06666666567302955 0  1 0.05850252932209174 0  1 0.04933859630113544 0  1 0.03905242821848202 0  1 0.02750659386753798 0  1 0.01454683679239736 0  1.015625 0 0  1.03125 0 0  1.046875 0 0  1.0625 0 0  1.078125 0 0  1.09375 0 0  1.109375 0 0  1.125 0 0  1.140625 0 0  1.15625 0 0  1.171875 0 0  1.1875 0 0  1.203125 0 0  1.21875 0 0  1.234375 0 0  1.25 0 0  1.265625 0 0  1.28125 0 0  1.296875 0 0  1.3125 0 0  1.328125 0 0  1.34375 0 0  1.359375 0 0  1.375 0 0  1.390625 0 0  1.40625 0 0  1.421875 0 0  1.4375 0 0  1.453125 0 0  1.46875 0 0  1.484375 0 0  1.515920751924515 0 0  1.531989369316721 0 0  1.54820720925872 0 0  1.564575665560501 0 0  1.581096138674279 0 0  1.597770029901263 0 0  1.614598783332311 0 0  1.631583831055205 0 0  1.64872661129721 0 0  1.666028606716533 0 0  1.683491276608443 0 0  1.701116134125304 0 0  1.718904673324128 0 0  1.736858414799339 0 0  1.754978895814663 0 0  1.773267661782904 0 0  1.791726281103402 0 0  1.810356325314689 0 0  1.8291593848892 0 0  1.848137076690385 0 0  1.867291007717254 0 0  1.886622833871288 0 0  1.90613418642363 0 0  1.925826753299799 0 0  1.945702199101513 0 0  1.96576223584749 0 0  1.986008569283268 0 0  2.006442931928877 0 0  2.02706707547783 0 0  2.047882750887917 0 0  2.06889175187935 0 0  2.090095860038271 0 0  2.111496891648636 0 0  2.133096679109554 0 0  2.154897066851056 0 0  2.176899916687499 0 0  2.199107102752146 0 0  2.22152053937028 0 0  2.244142122958061 0 0  2.266973806444078 0 0  2.290017523268154 0 0  2.313275249499252 0 0  2.336748971745516 0 0  2.360440702338606 0 0  2.384352453384031 0 0  2.408486280477412 0 0  2.432844240041185 0 0  2.457428414757088 0 0  2.482240901796653 0 0  2.507283830121838 0 0  2.532559332080812 0 0  2.558069568787417 0 0  2.583816724966441 0 0  2.60980299606584 0 0  2.636030600971886 0 0  2.662501790984011 0 0  2.689218818279327 0 0  2.716183964547616 0 0  2.743399548861297 0 0  2.77086788244719 0 0  2.798591312896326 0 0  2.826572223178268 0 0  2.854812990138617 0 0  2.883316031690714 0 0  2.912083780657189 0 0  2.941118704633482 0 0  2.970423276998917 0 0  3 0.02999999999994495 0  3 0.05999999999987042 0  3 0.089999999999783 0  3 0.119999999999701 0  3 0.149999999999619 0  3 0.179999999999692 0  3 0.2099999999997737 0  3 0.2399999999998511 0  3 0.2699999999999185 0  2.970138294777171 0.3 0  2.940375666438236 0.3 0  2.910711782853056 0.3 0  2.881146331305122 0.3 0  2.851678975030285 0.3 0  2.822309388626621 0.3 0  2.793037250095074 0.3 0  2.76386223529133 0.3 0  2.734784017903872 0.3 0  2.705802289276642 0.3 0  2.676916713794697 0.3 0  2.648126987654635 0.3 0  2.619432780406184 0.3 0  2.590833779385199 0.3 0  2.562329669847737 0.3 0  2.533920134950189 0.3 0  2.505604855727852 0.3 0  2.477383539822502 0.3 0  2.449255847639465 0.3 0  2.421221492569094 0.3 0  2.393280152486815 0.3 0  2.36543151914496 0.3 0  2.337675285481809 0.3 0  2.310011142385583 0.3 0  2.282438797441587 0.3 0  2.254957931061538 0.3 0  2.227568248063605 0.3 0  2.200269436651085 0.3 0  2.173061204949961 0.3 0  2.145943251515011 0.3 0  2.118915272469994 0.3 0  2.091976978084957 0.3 0  2.065128060700849 0.3 0  2.038368218849433 0.3 0  2.01169717777258 0.3 0  1.985114624111908 0.3 0  1.958620267850966 0.3 0  1.93221382054972 0.3 0  1.905894991850698 0.3 0  1.879663489459713 0.3 0  1.853519019126419 0.3 0  1.827461291053897 0.3 0  1.801490031354372 0.3 0  1.775604937580312 0.3 0  1.74980572560258 0.3 0  1.724092118631866 0.3 0  1.698463829173586 0.3 0  1.672920575782554 0.3 0  1.647462076974085 0.3 0  1.622088043536933 0.3 0  1.5967981978949 0.3 0  1.571592267767068 0.3 0  1.546469970305736 0.3 0  1.521431023814044 0.3 0  1.496475156230927 0.3 0  1.471602093687753 0.3 0  1.446811560490646 0.3 0  1.422103279101731 0.3 0  1.397476971708191 0.3 0  1.37293238939876 0.3 0  1.348469231419202 0.3 0  1.324087248732772 0.3 0  1.299786165921677 0.3 0  1.275565710847046 0.3 0  1.251425617644257 0.3 0  1.227365618676339 0.3 0  1.203385446174014 0.3 0  1.179484853067473 0.3 0  1.155663548773374 0.3 0  1.131921292279077 0.3 0  1.108257802159295 0.3 0  1.084672829009693 0.3 0  1.061166115303374 0.3 0  1.037737392995421 0.3 0  1.01438640299116 0.3 0  0.991112899770314 0.3 0  0.9679166155523955 0.3 0  0.944797284182564 0.3 0  0.921754678526042 0.3 0  0.8987885143602501 0.3 0  0.8758985548820624 0.3 0  0.8530845484099929 0.3 0  0.8303462351786988 0.3 0  0.8076833651172373 0.3 0  0.7850956864865304 0.3 0  0.7625829601354557 0.3 0  0.7401449314598274 0.3 0  0.717781337993959 0.3 0  0.6954919649675473 0.3 0  0.6732765357561226 0.3 0  0.6511348120768439 0.3 0  0.6290665642016573 0.3 0  0.6070715355430467 0.3 0  0.5851494825775325 0.3 0  0.5633001690203812 0.3 0  0.5415233562273221 0.3 0  0.5198187909431873 0.3 0  0.4981862401387795 0.3 0  0.4766254686134248 0.3 0  0.4551362360485234 0.3 0  0.4337182975262159 0.3 0  0.4123714223228037 0.3 0  0.3910953802377493 0.3 0  0.3698899313205595 0.3 0  0.3487548463710963 0.3 0  0.3276898864081783 0.3 0  0.3066948129116018 0.3 0  0.2857694003037476 0.3 0  0.2649134227095047 0.3 0  0.2441266417321288 0.3 0  0.2234088223399122 0.3 0  0.2027597568977288 0.3 0  0.1821792020676698 0.3 0  0.1616669305402443 0.3 0  0.1412227158799362 0.3 0  0.12084633013886 0.3 0  0.1005375673448281 0.3 0  0.08029618164595353 0.3 0  0.06012194778526769 0.3 0  0.04001466495039718 0.3 0  0.01997408913631205 0.3 0  0 0.2800000000000553 0  0 0.2600000000001105 0  0 0.2400000000001658 0  0 0.2200000000002211 0  0 0.2000000000002764 0  0 0.1800000000002244 0  0 0.1600000000001691 0  0 0.140000000000115 0  0 0.1200000000000564 0  1.133778471000506 0.01219539743990768 0  1.003741919047894 0.09354664821474232 0  0.9559421147150347 0.1035858189992458 0  0.9313792160389045 0.1037365237938103 0  0.9788461538460573 0.1033060829993555 0  0.9090102438250753 0.1037269304984056 0  0.8846304212778655 0.1043349840723655 0  0.8581503885465881 0.104741932962923 0  0.8286416220145676 0.1052762843984476 0  0.7982741772533339 0.1053575624517407 0  0.7708789559342691 0.1060290465840416 0  0.741870349714261 0.1078220590984258 0  0.7112469360040695 0.10685702926368 0  0.6783901541417233 0.1079959711853378 0  0.642884733623195 0.1075561996086514 0  0.6056235042367955 0.1085956039602543 0  0.5647007593786924 0.1083187281660325 0  1.1953125 0.01353164693413185 0  1.258148737344733 0.01268350115427042 0  1.320087046516829 0.01426312402966312 0  1.383495130751951 0.01432665475473204 0  1.4453125 0.01315663539200989 0  1.50886768312388 0.01395488397722681 0  0.9942307692307371 0.103330866937657 0  1.119309781943483 0.2802014914557878 0  1.572831235329714 0.01707210522554785 0  1.637611634353954 0.01209340368483431 0  1.709661292005932 0.0146870244871893 0  1.006561890631532 0.07068055446055937 0  1.784793444007901 0.01499371444634687 0  1.855459587353174 0.0
[...]
<PointData  Scalars="pressure"> 
<DataArray  type="Float64"  Name="pressure"  format="ascii">1.1467055461734033e-01  -2.0690499349952668e-01  -2.0014003661909127e-01  -1.4702061030354602e-01  -1.8822911192836109e-02  0.0000000000000000e+00  0.0000000000000000e+00  1.1468780393586915e-01  1.0874783540043520e-01  1.0292340062997958e-01  9.7195562397207322e-02  9.1562688176917192e-02  8.6023138922771983e-02  8.0575364774405286e-02  7.5217785437808077e-02  6.9948843158679150e-02  6.4767075815174519e-02  5.9670886184730584e-02  5.4658818889940126e-02  4.9729455991118880e-02  4.4881282201289799e-02  4.0112905019339479e-02  3.5422847473623044e-02  3.0809744831955331e-02  2.6272119815157393e-02  2.1808670475245619e-02  1.7417925070607125e-02  1.3098607879934589e-02  8.8491827003537044e-03  4.6684202840163360e-03  5.5517759856049198e-04  -3.4923465891422037e-03  -7.4752320083053226e-03  -1.1394935321261797e-02  -1.5252625964206097e-02  -1.9049847720525790e-02  -2.2787813692431845e-02  -2.6467966441790100e-02  -3.0091537531763139e-02  -3.3659675978475946e-02  -3.7174285843369424e-02  -4.0636378259174356e-02  -4.4047229788587432e-02  -4.7408265290149083e-02  -5.0721004793953924e-02  -5.3986573929862947e-02  -5.7206516154234173e-02  -6.0382060994660869e-02  -6.3514819790310165e-02  -6.6606035182405071e-02  -6.9657076048874653e-02  -7.2669304403544965e-02  -7.5644299355863420e-02  -7.8583223270973904e-02  -8.1487805390006426e-02  -8.4359196529293953e-02  -8.7198890124671510e-02  -9.0008686251091083e-02  -9.2789360909828519e-02  -9.5542942762847152e-02  -9.8271012397125240e-02  -1.0097376103999250e-01  -1.0365385352580067e-01  -1.0631259463014793e-01  -1.0895093225480507e-01  -1.1157198739090472e-01  -1.1417500724407134e-01  -1.1676158408302216e-01  -1.1933487557189108e-01  -1.2189551181095032e-01  -1.2444600458952680e-01  -1.2698582884039250e-01  -1.2951657530555258e-01  -1.3204235726201247e-01  -1.3456282692465871e-01  -1.3708014132045584e-01  -1.3959579976520683e-01  -1.4211157279936057e-01  -1.4462872670989960e-01  -1.4714976088766471e-01  -1.4967532178882842e-01  -1.5220746343779029e-01  -1.5474952979402859e-01  -1.5730275429351895e-01  -1.5986839721249810e-01  -1.6245000652621197e-01  -1.6504959976184097e-01  -1.6766915527819562e-01  -1.7031091580286545e-01  -1.7298233481372391e-01  -1.7568196572472722e-01  -1.7841534987648267e-01  -1.8118592289160521e-01  -1.8400170923522122e-01  -1.8686592756486620e-01  -1.8978455313857120e-01  -1.9277233141638611e-01  -1.9583356739704735e-01  -1.9897842411576691e-01  -2.0223336146356879e-01  -2.0562141384933566e-01  -2.0893876556351357e-01  -2.1397928601060293e-01  -2.2080116135634620e-01  -2.3188607709758666e-01  -2.3604216901520067e-01  -2.3637619958253203e-01  -2.3324309851406869e-01  -2.2761872579301043e-01  -2.2016556774406673e-01  -2.1164004827605645e-01  -2.0262306284204507e-01  -1.9358655254287344e-01  -1.8658276365759802e-01  -1.7009215711697229e-01  -1.9045673802627197e-01  -1.6936020577706781e-01  -1.6222257899890177e-01  -1.5703465797255359e-01  -1.5358907952785983e-01  -1.5099215922435172e-01  -1.4895640514985314e-01  -1.4746644132981832e-01  -1.4654053449424093e-01  -1.4624351224282886e-01  -1.4664120265394545e-01  -1.4750052784124512e-01  -1.4786194509979092e-01  -1.4756848585646987e-01  -1.4674679193568821e-01  -1.4547791248207090e-01  -1.4379775008176579e-01  -1.4168003309038621e-01  -1.3910798770899149e-01  -1.3611837821732142e-01  -1.3273250632394210e-01  -1.2896314846299387e-01  -1.2484337419961941e-01  -1.2040145553861900e-01  -1.1566381563947936e-01  -1.1066810978909160e-01  -1.0545301993107749e-01  -1.0005648696710466e-01  -9.4510371216775330e-02  -8.8854318883482372e-02  -8.3126954716352591e-02  -7.7352651083008081e-02  -7.1579577357022348e-02  -6.5824325431298875e-02  -6.0122708313044129e-02  -5.4492228958377464e-02  -4.8965474303772377e-02  -4.3558640605592190e-02  -3.8283573815984726e-02  -3.3161765187792444e-02  -2.8204077454069745e-02  -2.3422278024967810e-02  -1.4333686437155709e-02  -1.0015360989719800e-02  -5.8686985399564575e-03  -1.9192072744807422e-03  1.8384195271896587e-03  5.3922509380803221e-03  8.7366309216074228e-03  1.1872082881169286e-02  1.4764527357895380e-02  1.7432715133364831e-02  1.9878102423644749e-02  2.2096335945754081e-02  2.4085809866108098e-02  2.5853425933462341e-02  2.7403612186464123e-02  2.8746418998286675e-02  2.9892611534262505e-02  3.0844445566005966e-02  3.1616587140520382e-02  3.2236322163162447e-02  3.2698132754949261e-02  3.3030161101524867e-02  3.3247508892051574e-02  3.3359701541077223e-02  3.3391537470690041e-02  3.3345350694637822e-02  3.3252934961600811e-02  3.3109488959754227e-02  3.2933393197692028e-02  3.2730725833468220e-02  3.2508034394365011e-02  3.2271332843969838e-02  3.2025702914562158e-02  3.1770948198706336e-02  3.1504112958700238e-02  3.1224461546464174e-02  3.0927202615173326e-02  3.0607691379388641e-02  3.0259820407292862e-02  2.9877951417339118e-02  2.9456349024386326e-02  2.8989890019103900e-02  2.8473910677633826e-02  2.7905167540636499e-02  2.7281646122331381e-02  2.6603227668690048e-02  2.5869082124822553e-02  2.5081257092791683e-02  2.4243566007432011e-02  2.3357112799906692e-02  2.2423241535517984e-02  2.1452772551397572e-02  2.0438265456408481e-02  1.9391885624914406e-02  1.8307965726739591e-02  1.7184935666498431e-02  1.6030281811000392e-02  1.4832315499510418e-02  1.3594785309579086e-02  1.2311803829026998e-02  1.0977455405513958e-02  9.5907459142240501e-03  8.1456181659596456e-03  6.6467765270181436e-03  5.0806708170930215e-03  3.4633293811750089e-03  1.7797618636150954e-03  0.0000000000000000e+00  0.0000000000000000e+00  0.0000000000000000e+00  0.0000000000000000e+00  0.0000000000000000e+00  0.0000000000000000e+00  0.0000000000000000e+00  0.0000000000000000e+00  0.0000000000000000e+00  1.8474131960007933e-03  3.5929512224951491e-03  5.3248083578020097e-03  7.0242572315170554e-03  8.6928439064059334e-03  1.0326772327376698e-02  1.1921980671382008e-02  1.3472742181680330e-02  1.4972142157459329e-02  1.6413590512504062e-02  1.7790223946315100e-02  1.9096205153628996e-02  2.0326258979673582e-02  2.1477857393217996e-02  2.2550096605670613e-02  2.3539430239411831e-02  2.4454025304386742e-02  2.5287894583634511e-02  2.6048280605663818e-02  2.6734796102364639e-02  2.7348139253196884e-02  2.7886692152699528e-02  2.8347398820933498e-02  2.8719618692380565e-02  2.8999428544985217e-02  2.9169919391816346e-02  2.9213577086561322e-02  2.9117822188371022e-02  2.8859836187372010e-02  2.8424773788473003e-02  2.7796752909999611e-02  2.6965268135592683e-02  2.5927247754383043e-02  2.4681194829723641e-02  2.3191975408580718e-02  2.1514295068225400e-02  1.9626074879643653e-02  1.7546733104425574e-02  1.5286822315431886e-02  1.2863527316128425e-02  1.0282492984960053e-02  7.5586001694776233e-03  4.6908285992220957e-03  1.6879339445921343e-03  -1.4637951004592303e-03  -4.7556364073064634e-03  -8.2147540733824246e-03  -1.1845347633475636e-02  -1.5647619276134322e-02  -1.9648005992800376e-02  -2.3838791007897198e-02  -2.8225948113315268e-02  -3.2813802628690547e-02  -3.7593195700544632e-02  -4.2556825100832606e-02  -4.7693437118726686e-02  -5.2983221040141609e-02  -5.8397562507683569e-02  -6.3908236545153485e-02  -6.9493322006353386e-02  -7.5137214779238390e-02  -8.0770439829800880e-02  -8.6366550065718445e-02  -9.1919560410545567e-02  -9.7363000686673001e-02  -1.0265550567015914e-01  -1.0777958195592670e-01  -1.1269601685202056e-01  -1.1735969333366099e-01  -1.2174141679274396e-01  -1.2570936590242646e-01  -1.2932205513626494e-01  -1.3247476942745251e-01  -1.3505541792800235e-01  -1.3685605253644337e-01  -1.3800603783036880e-01  -1.3825339511656309e-01  -1.3767320674384667e-01  -1.3641303481484018e-01  -1.3411450649299678e-01  -1.3111513641025255e-01  -1.2745219855860473e-01  -1.2328674624842623e-01  -1.1865500655484204e-01  -1.1361523064207531e-01  -1.0825161419919171e-01  -1.0266001336444128e-01  -9.6873271587860618e-02  -9.0910569761268351e-02  -8.4842112770709813e-02  -7.8672687581581385e-02  -7.2437877143259541e-02  -6.6150950532930713e-02  -5.9823051278337445e-02  -5.3466933861212124e-02  -4.7096575548954085e-02  -4.0715581753738010e-02  -3.4330016523467913e-02  -2.7945702412242958e-02  -2.1567794134389518e-02  -1.5198748829976533e-02  -8.8389707107529667e-03  -2.4925961496852422e-03  3.8397313166495975e-03  1.0156186606474585e-02  1.6456405803625666e-02  2.2739546573434827e-02  2.9004147979270846e-02  3.5250977067945582e-02  4.1478479503851681e-02  4.7687174631281269e-02  5.3876542933637139e-02  6.0046276738690639e-02  6.6196576958606715e-02  7.2327136921930990e-02  7.8437965928887354e-02  8.4529030565494601e-02  9.0600317872072372e-02  9.6651837286027706e-02  1.0268358991194518e-01  1.0869557710281323e-01  1.1468775651318180e-01  1.1468704920405955e-01  1.1468527965319383e-01  1.1468253010477637e-01  1.1467918314414986e-01  1.1467584150544076e-01  1.1467308180582209e-01  1.1467132577259988e-01  1.1467061547855749e-01  -1.3718741897894132e-01  -1.7270544251804221e-01  -2.2898415522942989e-01  -2.0099203749004957e-01  -2.1332226959664718e-01  -1.8567717870634287e-01  -1.7181989487612487e-01  -1.5871671784834526e-01  -1.4569340277323575e-01  -1.3346853556365093e-01  -1.2317880263646984e-01  -1.1283584800810154e-01  -1.0235079344995315e-01  -9.1486432155899938e-02  -8.0053716895135879e-02  -6.8304974026909229e-02  -5.5599265281076928e-02  -1.2254598763813078e-01  -1.0271359536861827e-01  -8.0522440896667560e-02  -5.7351358235283097e-02  -3.6048205386671910e-02  -1.6705831800499036e-02  -1.8127840122095254e-01  -1.2321502616267585e-01  -5.0371737117492054e-04  1.2552919098731723e-02  2.2721206815373353e-02  -1.5290649490250527e-01  2.9197542716994578e-02  3.2215020698099783e-02  -4.2454841171522886e-02  3.3239867604434398e-02  -1.0462515317319675e-01  -8.2944337864620077e-02  3.2912294022241682e-02  -6.0655622299670017e-02  -2.8072997784131078e-02  -3.5549112070679796e-02  3.2095045279257911e-02  -1.3989378551440902e-02  -1.4413269103887263e-01  3.1021015422950198e-02  -1.3557904417909475e-02  -1.3305318457128695e-01  2.1495413980792549e-03  2.9626339561864713e-02  6.1052922187735913e-03  1.9908621243450282e-02  1.3871549181229143e-02  2.7565187603178685e-02  2.0594724616620617e-02  -1.3760860354799564e-01  2.4543963883413008e-02  3.7767268129371104e-02  2.5234499096791315e-02  -1.3242737721948727e-01  -1.2044620556749888e-01  2.8030696210722857e-02  2.0943093209399549e-02  5.7662032960618843e-02  7.2465532159900009e-02  -3.0715509109667046e-03  1.7721307498301423e-02  1.4052446160278571e-02  -1.0002578622271566e-01  2.9076791922926622e-02  2.8410098045445368e-02  -8.1507373639975275e-02  -2.1106087420981531e-01  -2.3317780873015578e-01  -6.3151158904730872e-02  2.6939411547588086e-02  1.0319502807941409e-02  -3.8388968780905634e-02  2.3915188040405579e-02  -5.8393564094875302e-03  2.0841829488996436e-02  2.5872632662243895e-02  1.7062972045576948e-02  4.4481457166903882e-02  8.1353007312963008e-02  6.3266806905482351e-02  1.2657004842715749e-02  1.0963573908776858e-01  1.5866305157193428e-03  8.8982478053388436e-02  -1.4760087718848827e-01  7.9684562879682036e-03  5.7179623684713524e-03  -1.5910832605075456e-01  -1.4664460229922274e-01  -1.3677709389907627e-01  -1.1455013286570678e-01  -1.1103927073135098e-01  -5.0233595710940299e-02  -2.5060313595769795e-02  7.7370322904462604e-03  -2.5799133761877705e-02  -4.9828536001068888e-02  -7.1292963733206136e-02  -9.4063637774450731e-02  4.7304918617803893e-02  2.8621364621622351e-02  2.8987817165182464e-02  2.5580912686031861e-02  1.1437548774735759e-02  2.2914059140546787e-02  9.3529445305937264e-02  2.6175083885522608e-02  2.8698121114849613e-02  -5.7910716824342724e-03  3.0385912984892193e-02  1.0960652428591602e-01  3.1584375333074725e-02  -2.0821805863149613e-02  3.2580832669619225e-02  3.3184487193351667e-02  -8.3280092508866959e-03  3.2953137411767051e-02  -3.5556503436228529e-02  3.0990107628673467e-02  2.6322942751942403e-02  1.8182811358200879e-02  -4.9184742622578229e-02  6.8282951365336714e-03  1.3659956312910850e-03  -6.1957922754654345e-02  -7.4212186228381424e-02  -8.6044511316150721e-02  -9.6624079239317179e-02  -1.0784816187353033e-01  -1.1811662220729098e-01  -1.2857333277271785e-01  -1.4093798878927480e-01  -1.3047845413825415e-01  -1.5358949695702440e-01  -1.6658695453841640e-01  -1.8001524504007116e-01  -1.1317297626959569e-01  -1.9413085315732315e-01  -6.9143930154393879e-02  -9.1288434681080360e-02  -4.7369697634550859e-02  -2.6167281529966908e-02  1.1002700428540180e-01  -1.9565203044493934e-01  1.6364276881093601e-03  1.0002080002750714e-01  4.4000316581378771e-03  -1.4722235305490955e-01  1.3852799908658504e-03  1.1016430432428741e-01  -1.4714107216018085e-01  -1.4677917766073886e-01  -1.4621872323458426e-01  -1.4684739231835980e-01  -1.4627701974633217e-01  -1.4724656504588163e-01  -1.4653688846489357e-01  -1.4773445204114116e-01  -1.4687617634306288e-01  -1.4804497336526504e-01  -1.4697682330738490e-01  -1.4789405386697457e-01  -1.4659499438325213e-01  -1.4719279051650649e-01  -1.4571998221616037e-01  -1.4613220196685783e-01  -1.4441185801359122e-01  -1.4483354281033717e-01  -1.4289536963850827e-01  -1.4329201220462762e-01  -1.4088655356107335e-01  -1.4548644618537238e-01  -1.4052552062937518e-01  -1.3809618438033650e-01  -1.4377512515925608e-01  -1.4649101458347460e-01  -1.3741365115926868e-01  -1.3466227707109915e-01  -1.3419934972212652e-01  -1.3088561879976862e-01  -1.3024423114699321e-01  -1.2671997574356969e-01  -1.2582742563068536e-01  -1.2232878430492800e-01  -1.2095652039097479e-01  -1.1708080841896404e-01  -1.1548128770610826e-01  -1.1149783308953760e-01  -1.0966582434340140e-01  -1.0586543707851150e-01  -1.0361556631572195e-01  -9.9382466793450822e-02  -9.7215812146220923e-02  -9.3599500404603561e-02  -9.0807250162486072e-02  -8.7381876887141607e-02  -8.4261177848212465e-02  -8.1270292378747125e-02  -7.7714170480349828e-02  -7.5018708641715864e-02  -7.1256761382020958e-02  -1.4426304092212605e-01  -1.4727167888915363e-01  -6.8757744139156640e-02  -6.4393158442117002e-02  -6.2661411931160468e-02  -5.8189854028816712e-02  -5.6872531802155568e-02  -5.2380103187709456e-02  -5.1215631840023867e-02  -4.6542121525949158e-02  -4.5765845505904026e-02  -4.0908014254153670e-02  -1.3485178453644558e-01  -4.0548984342963848e-02  -3.5484729982977421e-02  -3.5567753695562560e-02  -3.0337338853971059e-02  -3.0882161487994105e-02  -2.5476416432355355e-02  -1.4464059506417568e-01  -1.4812747143714694e-01  -1.4848563915825083e-01  -2.6407692439728302e-02  -2.0858775656809429e-02  -1.4932569017334765e-01  -2.2065135001599654e-02  -1.6499351509244763e-02  -1.8095287429923671e-02  -1.2444963404527649e-02  -1.4305410505240247e-02  -8.6425828485870299e-03  -1.2352020314029509e-01  -1.1009625943003646e-02  -5.1631383873823019e-03  -7.5757989358662750e-03  -1.8859646493238876e-03  -4.5045220837189367e-03  1.1176653245738419e-03  -1.4494980906917540e-01  -1.0760498419785663e-01  -1.6292352207184291e-03  3.8454905047129759e-03  -1.4473731201395978e-01  -1.4938761522829755e-01  -1.4118497879675665e-01  -9.0013068373913138e-02  6.7499472470655209e-04  6.4289377626929635e-03  3.0757580552335374e-03  8.7595272070998490e-03  5.3108549527009791e-03  1.0765538840815611e-02  -2.0141733803469817e-02  9.6693989029085544e-03  -6.8757096831328357e-03  -3.6059820545089230e-02  7.4293471099618289e-03  1.2595086171681045e-02  1.6014320540735753e-02  1.7658472596020394e-02  1.4333623239588615e-02  1.9131439439043829e-02  1.5986079238324125e-02  2.0509973447753675e-02  1.7484900379023078e-02  2.1689939311342849e-02  1.8869424787483453e-02  2.2793760127800933e-02  2.0191210138526150e-02  2.3757264147336428e-02  2.1351867178955077e-02  2.4653091513223015e-02  2.2525010246057197e-02  2.5547614071908704e-02  2.3581045769077148e-02  2.6285738806811454e-02  2.4583155018529205e-02  2.6921678051367071e-02  2.5398117911169766e-02  2.7510479206625627e-02  -5.3923133259705637e-02  -7.2375195276499563e-02  2.6216397182349190e-02  2.7996391072786345e-02  2.6967800408743695e-02  2.8463392992320598e-02  -1.2891543646694045e-01  2.7616792262010949e-02  2.8825592600210091e-02  -8.7652029179033822e-02  -1.0726858774353069e-01  -1.4440382840911559e-01  -1.4750625891690439e-01  -1.5374326411060588e-01  -1.5304035639984398e-01  -1.5894521703804942e-01  -1.5806659234042789e-01  -1.6444400169520970e-01  -1.6274688177963173e-01  -1.6998666075887736e-01  -1.6701119059973940e-01  -1.7485068143747448e-01  -1.7026465559986856e-01  -1.7863248364708587e-01  -1.7275326716347242e-01  -1.8191273061820637e-01  -1.7475496454089920e-01  -1.8127604421810223e-01  -1.7356154551493627e-01  -1.8020528832184268e-01  -1.7346817051212585e-01  -1.7812553099212214e-01  -1.7144973883010381e-01  -1.7513205782880431e-01  -1.6874065291775989e-01  -1.7157401973638300e-01  -1.6560300452056240e-01  -1.6769274786616900e-01  -1.6207331690141860e-01  -1.6663761059335591e-01  -1.5965417993033357e-01  -1.5644956352835332e-01  -1.5832586533622850e-01  -1.5309140284971640e-01  -1.5448613687749779e-01  -1.4959222927416460e-01  -1.5074358890740566e-01  -1.4603983954555222e-01  -1.4807628895550395e-01  -1.4745790777950651e-01  -1.4246348330462563e-01  -1.4282311987330246e-01  -1.3859561591656128e-01  -1.3796384584052826e-01  -1.3436535888309303e-01  -1.3473400057069201e-01  -1.3073030199568617e-01  -1.3074911032576730e-01  -1.2702428432713872e-01  -1.6416328204962249e-01  -1.2678727370777129e-01  -1.2323705437074656e-01  -1.2314844191544937e-01  -1.1950955682026936e-01  -1.1946051437446258e-01  -1.1583054262404092e-01  -1.1566676266539204e-01  -1.1212982764349530e-01  -1.8705221170677666e-01  -1.6817943082557371e-01  -1.7757855904189909e-01  -1.8694326519918808e-01  -1.1180613390815833e-01  -1.0836501056530265e-01  -1.0857701527998795e-01  -1.0483440142496490e-01  -1.0455553638960118e-01  -1.0106919747998683e-01  -1.0068324562459312e-01  -9.7244171348521841e-02  -9.7596034424257627e-02  -9.3804887926364211e-02  -9.3318629459434518e-02  -8.9946248696247524e-02  -1.3367062537292443e-01  -8.9357810967600468e-02  -8.6084592584666636e-02  -1.8177932309580555e-01  -1.5938301286715234e-01  -1.1938411015747206e-01  -1.7323127980932768e-01  -8.5447698666972771e-02  -8.2105741086502121e-02  -8.2986910645525824e-02  -7.8777038150365422e-02  -7.8185177148938398e-02  -7.4709498298714844e-02  -7.5306321866520268e-02  -7.1243012287289048e-02  -7.0632863801854406e-02  -6.7179319870500423e-02  -1.5536423274629602e-01  -6.6560873624185474e-02  -6.3043901759189835e-02  -9.3938972131057674e-02  -1.3377984250851133e-01  -5.5753551597351882e-02  -1.4670126124161734e-01  -6.3682503354249589e-02  -5.9530367497404840e-02  -5.8892215698023234e-02  -5.5380340493572038e-02  2.8122556819490229e-02  2.9121625595924662e-02  2.8543289054727122e-02  2.9342692579146235e-02  2.8877683005727784e-02  2.9491601740886223e-02  -5.4576210164818534e-02  -5.1112662075189413e-02  -3.1729633865283574e-02  -5.1806066222522887e-02  -4.7566607430354096e-02  -4.6998791855775747e-02  -4.3353434395413386e-02  -1.4840764832632289e-01  -1.4801738509719931e-01  -1.1918386292639954e-01  2.6456120267655224e-02  2.9105960613245663e-02  2.9558267827225683e-02  2.0627419606834618e-02  2.8909110984831763e-02  3.0009712609635149e-02  2.9938367613938997e-02  2.9548322591872477e-02  2.9811621705705837e-02  2.9463430064617085e-02  2.9624413602439514e-02  2.9299750836673098e-02  2.9374698382340216e-02  2.9064223723692509e-02  2.9060572571019887e-02  2.8752341123517811e-02  2.8674008284771228e-02  2.8372981344360903e-02  2.8224213829554298e-02  2.7928204522436245e-02  2.7712732588581420e-02  2.7426645358699049e-02  2.7141466223033994e-02  2.6859236945973329e-02  2.6500614227176995e-02  2.6226771073203970e-02  2.5811255571126318e-02  2.5534322560451194e-02  2.5044948458798275e-02  -4.2775050015186521e-02  -3.9111422970763532e-02  -3.9428737878586570e-02  -3.5319466212934782e-02  -3.4796979387346119