<?xml version="1.0"?>
<VTKFile type="UnstructuredGrid"  version="0.1"  >
<UnstructuredGrid>
<Piece  NumberOfPoints="2945" NumberOfCells="5525">
<Points>
<DataArray  type="Float64"  NumberOfComponents="3"  format="ascii">0 0.1 0  0.95 0.1 0  1 0.1 0  1 0 0  1.5 0 0  3 0 0  3 0.3 0  0 0.3 0  0.0197424558707114 0.1 0  0.03915669042224804 0.1 0  0.05824816022699029 0.1 0  0.07702223050332387 0.1 0  0.09548417327144595 0.1 0  0.1136391897583987 0.1 0  0.1314923700144587 0.1 0  0.1490487330862866 0.1 0  0.1663132263225292 0.1 0  0.1832906857273058 0.1 0  0.1999858946008978 0.1 0  0.216403545770297 0.1 0  0.2325482404045023 0.1 0  0.2484245348165176 0.1 0  0.2640368740372501 0.1 0  0.2793896589642241 0.1 0  0.2944872056237027 0.1 0  0.3093337469555254 0.1 0  0.3239334613687816 0.1 0  0.3382904528528069 0.1 0  0.3524087553122972 0.1 0  0.3662923366391824 0.1 0  0.3799451014768399 0.1 0  0.393370886920506 0.1 0  0.4065734648871676 0.1 0  0.419556546320114 0.1 0  0.4323237821343415 0.1 0  0.4448787573056132 0.1 0  0.4572250047274954 0.1 0  0.4693659926332938 0.1 0  0.4813051343276231 0.1 0  0.4930457849308193 0.1 0  0.5045912455271677 0.1 0  0.5159447600209797 0.1 0  0.5271095174127136 0.1 0  0.5380886618453393 0.1 0  0.5488852725463512 0.1 0  0.5595023868312478 0.1 0  0.5699429904313016 0.1 0  0.5802100167387366 0.1 0  0.5903063508274641 0.1 0  0.6002348329443006 0.1 0  0.6099982499579832 0.1 0  0.6195993483501782 0.1 0  0.6290408246013842 0.1 0  0.6383253354321616 0.1 0  0.6474554910757137 0.1 0  0.6564338522440513 0.1 0  0.6652629482939147 0.1 0  0.6739452579188948 0.1 0  0.6824832240165607 0.1 0  0.6908792415022103 0.1 0  0.6991356755989045 0.1 0  0.7072548438546967 0.1 0  0.7152390281534421 0.1 0  0.7230904746196039 0.1 0  0.7308113906759266 0.1 0  0.7384039435269326 0.1 0  0.7458702676581656 0.1 0  0.7532124631720397 0.1 0  0.7604325921167397 0.1 0  0.7675326856666862 0.1 0  0.7745147374421916 0.1 0  0.7813807123989068 0.1 0  0.7881325374362798 0.1 0  0.7947721131625659 0.1 0  0.8013013031866276 0.1 0  0.8077219449067021 0.1 0  0.8140358419942376 0.1 0  0.8202447685401882 0.1 0  0.8263504700910924 0.1 0  0.8323546643163114 0.1 0  0.8382590362474568 0.1 0  0.8440652473522128 0.1 0  0.8497749272799842 0.1 0  0.8553896837646281 0.1 0  0.8609110933285474 0.1 0  0.866340708855119 0.1 0  0.8716800550492284 0.1 0  0.8769306339052932 0.1 0  0.8820939206038667 0.1 0  0.8871713655604893 0.1 0  0.8921643975475726 0.1 0  0.8970744196575535 0.1 0  0.9019028106970642 0.1 0  0.9066509291259979 0.1 0  0.9113201098984042 0.1 0  0.9159116634553873 0.1 0  0.9204268818729691 0.1 0  0.9248670319440222 0.1 0  0.9292333656649013 0.1 0  0.9335271075812669 0.1 0  0.9377494640511216 0.1 0  0.941901623463222 0.1 0  0.9459847526686701 0.1 0  0.9538461538461205 0.1 0  0.9576923076922409 0.1 0  0.9615384615384381 0.1 0  0.9653846153846337 0.1 0  0.9692307692307542 0.1 0  0.9730769230768747 0.1 0  0.9769230769229952 0.1 0  0.9807692307691157 0.1 0  0.9846153846152361 0.1 0  0.9884615384614317 0.1 0  0.9923076923076356 0.1 0  0.9961538461538395 0.1 0  1 0.09591793123533533 0  1 0.09133596463859224 0  1 0.08619288104391448 0  1 0.08041996484521211 0  1 0.07394008421771697 0  1 0.06666666567302955 0  1 0.05850252932209174 0  1 0.04933859630113544 0  1 0.03905242821848202 0  1 0.02750659386753798 0  1 0.01454683679239736 0  1.015625 0 0  1.03125 0 0  1.046875 0 0  1.0625 0 0  1.078125 0 0  1.09375 0 0  1.109375 0 0  1.125 0 0  1.140625 0 0  1.15625 0 0  1.171875 0 0  1.1875 0 0  1.203125 0 0  1.21875 0 0  1.234375 0 0  1.25 0 0  1.265625 0 0  1.28125 0 0  1.296875 0 0  1.3125 0 0  1.328125 0 0  1.34375 0 0  1.359375 0 0  1.375 0 0  1.390625 0 0  1.40625 0 0  1.421875 0 0  1.4375 0 0  1.453125 0 0  1.46875 0 0  1.484375 0 0  1.515920751924515 0 0  1.531989369316721 0 0  1.54820720925872 0 0  1.564575665560501 0 0  1.581096138674279 0 0  1.597770029901263 0 0  1.614598783332311 0 0  1.631583831055205 0 0  1.64872661129721 0 0  1.666028606716533 0 0  1.683491276608443 0 0  1.701116134125304 0 0  1.718904673324128 0 0  1.736858414799339 0 0  1.754978895814663 0 0  1.773267661782904 0 0  1.791726281103402 0 0  1.810356325314689 0 0  1.8291593848892 0 0  1.848137076690385 0 0  1.867291007717254 0 0  1.886622833871288 0 0  1.90613418642363 0 0  1.925826753299799 0 0  1.945702199101513 0 0  1.96576223584749 0 0  1.986008569283268 0 0  2.006442931928877 0 0  2.02706707547783 0 0  2.047882750887917 0 0  2.06889175187935 0 0  2.090095860038271 0 0  2.111496891648636 0 0  2.133096679109554 0 0  2.154897066851056 0 0  2.176899916687499 0 0  2.199107102752146 0 0  2.22152053937028 0 0  2.244142122958061 0 0  2.266973806444078 0 0  2.290017523268154 0 0  2.313275249499252 0 0  2.336748971745516 0 0  2.360440702338606 0 0  2.384352453384031 0 0  2.408486280477412 0 0  2.432844240041185 0 0  2.457428414757088 0 0  2.482240901796653 0 0  2.507283830121838 0 0  2.532559332080812 0 0  2.558069568787417 0 0  2.583816724966441 0 0  2.60980299606584 0 0  2.636030600971886 0 0  2.662501790984011 0 0  2.689218818279327 0 0  2.716183964547616 0 0  2.743399548861297 0 0  2.77086788244719 0 0  2.798591312896326 0 0  2.826572223178268 0 0  2.854812990138617 0 0  2.883316031690714 0 0  2.912083780657189 0 0  2.941118704633482 0 0  2.970423276998917 0 0  3 0.02999999999994495 0  3 0.05999999999987042 0  3 0.089999999999783 0  3 0.119999999999701 0  3 0.149999999999619 0  3 0.179999999999692 0  3 0.2099999999997737 0  3 0.2399999999998511 0  3 0.2699999999999185 0  2.970138294777171 0.3 0  2.940375666438236 0.3 0  2.910711782853056 0.3 0  2.881146331305122 0.3 0  2.851678975030285 0.3 0  2.822309388626621 0.3 0  2.793037250095074 0.3 0  2.76386223529133 0.3 0  2.734784017903872 0.3 0  2.705802289276642 0.3 0  2.676916713794697 0.3 0  2.648126987654635 0.3 0  2.619432780406184 0.3 0  2.590833779385199 0.3 0  2.562329669847737 0.3 0  2.533920134950189 0.3 0  2.505604855727852 0.3 0  2.477383539822502 0.3 0  2.449255847639465 0.3 0  2.421221492569094 0.3 0  2.393280152486815 0.3 0  2.36543151914496 0.3 0  2.337675285481809 0.3 0  2.310011142385583 0.3 0  2.282438797441587 0.3 0  2.254957931061538 0.3 0  2.227568248063605 0.3 0  2.200269436651085 0.3 0  2.173061204949961 0.3 0  2.145943251515011 0.3 0  2.118915272469994 0.3 0  2.091976978084957 0.3 0  2.065128060700849 0.3 0  2.038368218849433 0.3 0  2.01169717777258 0.3 0  1.985114624111908 0.3 0  1.958620267850966 0.3 0  1.93221382054972 0.3 0  1.905894991850698 0.3 0  1.879663489459713 0.3 0  1.853519019126419 0.3 0  1.827461291053897 0.3 0  1.801490031354372 0.3 0  1.775604937580312 0.3 0  1.74980572560258 0.3 0  1.724092118631866 0.3 0  1.698463829173586 0.3 0  1.672920575782554 0.3 0  1.647462076974085 0.3 0  1.622088043536933 0.3 0  1.5967981978949 0.3 0  1.571592267767068 0.3 0  1.546469970305736 0.3 0  1.521431023814044 0.3 0  1.496475156230927 0.3 0  1.471602093687753 0.3 0  1.446811560490646 0.3 0  1.422103279101731 0.3 0  1.397476971708191 0.3 0  1.37293238939876 0.3 0  1.348469231419202 0.3 0  1.324087248732772 0.3 0  1.299786165921677 0.3 0  1.275565710847046 0.3 0  1.251425617644257 0.3 0  1.227365618676339 0.3 0  1.203385446174014 0.3 0  1.179484853067473 0.3 0  1.155663548773374 0.3 0  1.131921292279077 0.3 0  1.108257802159295 0.3 0  1.084672829009693 0.3 0  1.061166115303374 0.3 0  1.037737392995421 0.3 0  1.01438640299116 0.3 0  0.991112899770314 0.3 0  0.9679166155523955 0.3 0  0.944797284182564 0.3 0  0.921754678526042 0.3 0  0.8987885143602501 0.3 0  0.8758985548820624 0.3 0  0.8530845484099929 0.3 0  0.8303462351786988 0.3 0  0.8076833651172373 0.3 0  0.7850956864865304 0.3 0  0.7625829601354557 0.3 0  0.7401449314598274 0.3 0  0.717781337993959 0.3 0  0.6954919649675473 0.3 0  0.6732765357561226 0.3 0  0.6511348120768439 0.3 0  0.6290665642016573 0.3 0  0.6070715355430467 0.3 0  0.5851494825775325 0.3 0  0.5633001690203812 0.3 0  0.5415233562273221 0.3 0  0.5198187909431873 0.3 0  0.4981862401387795 0.3 0  0.4766254686134248 0.3 0  0.4551362360485234 0.3 0  0.4337182975262159 0.3 0  0.4123714223228037 0.3 0  0.3910953802377493 0.3 0  0.3698899313205595 0.3 0  0.3487548463710963 0.3 0  0.3276898864081783 0.3 0  0.3066948129116018 0.3 0  0.2857694003037476 0.3 0  0.2649134227095047 0.3 0  0.2441266417321288 0.3 0  0.2234088223399122 0.3 0  0.2027597568977288 0.3 0  0.1821792020676698 0.3 0  0.1616669305402443 0.3 0  0.1412227158799362 0.3 0  0.12084633013886 0.3 0  0.1005375673448281 0.3 0  0.08029618164595353 0.3 0  0.06012194778526769 0.3 0  0.04001466495039718 0.3 0  0.01997408913631205 0.3 0  0 0.2800000000000553 0  0 0.2600000000001105 0  0 0.2400000000001658 0  0 0.2200000000002211 0  0 0.2000000000002764 0  0 0.1800000000002244 0  0 0.1600000000001691 0  0 0.140000000000115 0  0 0.1200000000000564 0  1.133778471000506 0.01219539743990768 0  1.003741919047894 0.09354664821474232 0  0.9559421147150347 0.1035858189992458 0  0.9313792160389045 0.1037365237938103 0  0.9788461538460573 0.1033060829993555 0  0.9090102438250753 0.1037269304984056 0  0.8846304212778655 0.1043349840723655 0  0.8581503885465881 0.104741932962923 0  0.8286416220145676 0.1052762843984476 0  0.7982741772533339 0.1053575624517407 0  0.7708789559342691 0.1060290465840416 0  0.741870349714261 0.1078220590984258 0  0.7112469360040695 0.10685702926368 0  0.6783901541417233 0.1079959711853378 0  0.642884733623195 0.1075561996086514 0  0.6056235042367955 0.1085956039602543 0  0.5647007593786924 0.1083187281660325 0  1.1953125 0.01353164693413185 0  1.258148737344733 0.01268350115427042 0  1.320087046516829 0.01426312402966312 0  1.383495130751951 0.01432665475473204 0  1.4453125 0.01315663539200989 0  1.50886768312388 0.01395488397722681 0  0.9942307692307371 0.103330866937657 0  1.119309781943483 0.2802014914557878 0  1.572831235329714 0.01707210522554785 0  1.637611634353954 0.01209340368483431 0  1.709661292005932 0.0146870244871893 0  1.006561890631532 0.07068055446055937 0  1.784793444007901 0.01499371444634687 0  1.855459587353174 0.0
[...]
<PointData  Scalars="pressure"> 
<DataArray  type="Float64"  Name="pressure"  format="ascii">5.8494077117476721e-02  -2.9246645760590895e-01  -1.7882122317917301e-01  -1.3343842741310910e-01  2.5042028757778226e-02  0.0000000000000000e+00  0.0000000000000000e+00  5.8517694562274201e-02  5.2571363468645681e-02  4.6746861860255680e-02  4.1018863760547586e-02  3.5385725882292191e-02  2.9845784935312595e-02  2.4397494103203052e-02  1.9039252228525181e-02  1.3769473120339937e-02  8.5867097577163702e-03  3.4892984162808423e-03  -1.5242331651207524e-03  -6.4553024115872725e-03  -1.1305490472947448e-02  -1.6076205305542320e-02  -2.0768992516664721e-02  -2.5385243322938851e-02  -2.9926525257074076e-02  -3.4394162845356950e-02  -3.8789740055633175e-02  -4.3114561474153219e-02  -4.7370335099132931e-02  -5.1558329336950225e-02  -5.5679660833366069e-02  -5.9736489989080654e-02  -6.3729877783563912e-02  -6.7661492076762128e-02  -7.1532552717527981e-02  -7.5344800966868575e-02  -7.9099721119152824e-02  -8.2798777718028058e-02  -8.6443576192027749e-02  -9.0035133936076747e-02  -9.3576062920516290e-02  -9.7067355624307253e-02  -1.0051054932646061e-01  -1.0390733203811817e-01  -1.0725960774497961e-01  -1.1056871795874464e-01  -1.1383657143540976e-01  -1.1706471320579180e-01  -1.2025521129648130e-01  -1.2340959452508719e-01  -1.2652966727035264e-01  -1.2961712492555336e-01  -1.3267407969065437e-01  -1.3570204802797309e-01  -1.3870340449722701e-01  -1.4167960354637005e-01  -1.4463272965145868e-01  -1.4756515039527646e-01  -1.5047830924520972e-01  -1.5337425011755090e-01  -1.5625634982025444e-01  -1.5912376619624649e-01  -1.6198092104091555e-01  -1.6482960397508367e-01  -1.6767110475375097e-01  -1.7051017831525309e-01  -1.7334620252297139e-01  -1.7618023097961918e-01  -1.7901803889794857e-01  -1.8186081740668630e-01  -1.8471212313038954e-01  -1.8757159415585453e-01  -1.9044062987908295e-01  -1.9332720382660190e-01  -1.9623035991232871e-01  -1.9915375956374665e-01  -2.0210011154496840e-01  -2.0507237392225924e-01  -2.0807305773277335e-01  -2.1110678983405173e-01  -2.1417494619933222e-01  -2.1728116879389398e-01  -2.2043206993482894e-01  -2.2363058973388858e-01  -2.2687946592327954e-01  -2.3018582606999893e-01  -2.3355491454381211e-01  -2.3699081969903490e-01  -2.4049928971156295e-01  -2.4409665537535374e-01  -2.4778196130657940e-01  -2.5156829498970973e-01  -2.5546536198293934e-01  -2.5949338012083667e-01  -2.6366321113499952e-01  -2.6799252222137721e-01  -2.7252176640633397e-01  -2.7726848791255498e-01  -2.8226702891218591e-01  -2.8759438479331334e-01  -2.9332212977378752e-01  -2.9906478364116090e-01  -3.0894165602119483e-01  -3.2519508615875375e-01  -3.4886260411564834e-01  -3.5431926366678224e-01  -3.4943989032671618e-01  -3.3565581336371481e-01  -3.1601828935210075e-01  -2.9241693211808728e-01  -2.6697364372132387e-01  -2.4101790771366063e-01  -2.1580503994893971e-01  -1.9424310503716255e-01  -1.6333765718660523e-01  -1.8179236806148930e-01  -1.5519669866565383e-01  -1.4703321811632714e-01  -1.4111619433746300e-01  -1.3755909790350868e-01  -1.3522414595368315e-01  -1.3366690792195626e-01  -1.3276395537492067e-01  -1.3243497038951357e-01  -1.3264011538743592e-01  -1.3322842642155402e-01  -1.3370166849330306e-01  -1.3442081557902874e-01  -1.3508575708751397e-01  -1.3585117735619845e-01  -1.3680075281167706e-01  -1.3784374505797109e-01  -1.3875124571709863e-01  -1.3934263214514692e-01  -1.3940849918099407e-01  -1.3878830023307900e-01  -1.3741072980866501e-01  -1.3528563069635666e-01  -1.3245881067639345e-01  -1.2901472473654382e-01  -1.2503875983020543e-01  -1.2057051917973252e-01  -1.1559454742007512e-01  -1.1005649609036976e-01  -1.0386735401115089e-01  -9.6781033787382328e-02  -8.8885607490434865e-02  -7.9935381666077054e-02  -7.0011336426187995e-02  -5.9233069211702793e-02  -4.7691870912479221e-02  -3.5824118735362689e-02  -2.3781245398058672e-02  -1.2083536683520307e-02  -1.0445044098740229e-03  8.9951394222016739e-03  1.7753670657879649e-02  3.0811187042006673e-02  3.4879137412910419e-02  3.7214107252583901e-02  3.7793798921559513e-02  3.6760918407790194e-02  3.4268860191258167e-02  3.0407722169470967e-02  2.5523286611908842e-02  1.9713897809826113e-02  1.3433996509252279e-02  7.1118720566707185e-03  1.2074696574800794e-03  -3.8199101282497343e-03  -7.4636730886197692e-03  -9.3530461629424844e-03  -9.1917840426585171e-03  -6.8969518895380215e-03  -2.4602366090611329e-03  3.7731789834630249e-03  1.1220995945035998e-02  1.9529865989038258e-02  2.7956506708799636e-02  3.5882683474704989e-02  4.2871753724244982e-02  4.8463955611343194e-02  5.2571967075854327e-02  5.4977535365333501e-02  5.5770222103113248e-02  5.5097831985416047e-02  5.3120162276907343e-02  5.0029482285591856e-02  4.6091888228647737e-02  4.1527696463697181e-02  3.6530393564122944e-02  3.1243844528935191e-02  2.5909219876069908e-02  2.0726794016556357e-02  1.5975701892602084e-02  1.1920625897137299e-02  8.8523581488500602e-03  7.0167763886758213e-03  6.5786642259146001e-03  7.5739894307363014e-03  9.8836077206927754e-03  1.3238902090079446e-02  1.7243099319913149e-02  2.1458947294867810e-02  2.5421061183962281e-02  2.8716598838870250e-02  3.0998091663627249e-02  3.2180589136259492e-02  3.2151752357660088e-02  3.0935401635431941e-02  2.8799341286707209e-02  2.5807515405104883e-02  2.2143541077222630e-02  1.8272066914982517e-02  1.4138756331622294e-02  1.0184131794899966e-02  6.5409624689221546e-03  3.4531136819475434e-03  9.7073800845861246e-04  -6.7831140073985972e-04  -1.6329778947432401e-03  -1.7879570450312248e-03  -1.4393523974180393e-03  -6.0871675881810073e-04  0.0000000000000000e+00  0.0000000000000000e+00  0.0000000000000000e+00  0.0000000000000000e+00  0.0000000000000000e+00  0.0000000000000000e+00  0.0000000000000000e+00  0.0000000000000000e+00  0.0000000000000000e+00  3.7331087543062275e-03  7.2786379286821027e-03  1.0479477580687882e-02  1.3003414729147371e-02  1.4699676166392832e-02  1.5469344087872585e-02  1.5269355629676993e-02  1.4162104333903745e-02  1.2329556901852072e-02  1.0081620744617117e-02  7.8230058325764254e-03  6.0122650083316541e-03  5.0824172331034511e-03  5.3670161333111907e-03  7.0538221581871305e-03  1.0145891770921796e-02  1.4478399830016126e-02  1.9758282097839312e-02  2.5631875315640314e-02  3.1704099545391759e-02  3.7584820322174840e-02  4.2859704399095401e-02  4.7100800097564226e-02  4.9826315130908377e-02  5.0585782277626459e-02  4.8977873702573331e-02  4.4715891393775888e-02  3.7841953223795410e-02  2.8786261787336960e-02  1.8389782595212158e-02  7.8603790480599092e-03  -1.4938700050252545e-03  -8.4816340060107267e-03  -1.2447186130586402e-02  -1.2335592055456085e-02  -9.5179052163201563e-03  -3.7886449687370197e-03  3.2771846180065269e-03  1.0851588795997763e-02  1.8340991034134651e-02  2.4696861248345987e-02  2.9814119471722231e-02  3.3303523449628621e-02  3.4867859534541246e-02  3.4200376717541683e-02  3.1042443309881141e-02  2.5235790290510603e-02  1.6821888384439796e-02  6.1669815708062523e-03  -6.0000140065387978e-03  -1.8770980301671784e-02  -3.1000708213454343e-02  -4.2023289176825032e-02  -5.1152482257801904e-02  -5.8172506137764604e-02  -6.3500091104090939e-02  -6.7704078953758698e-02  -7.1441991612097841e-02  -7.5229051460121557e-02  -7.9375738115615879e-02  -8.3932704956351079e-02  -8.8799627912023033e-02  -9.3762082312373152e-02  -9.8734584840000195e-02  -1.0364609979831386e-01  -1.0858409535674625e-01  -1.1366761248009613e-01  -1.1906135478438375e-01  -1.2487275305000588e-01  -1.3113203083060870e-01  -1.3768336327488501e-01  -1.4446058053892444e-01  -1.5118889251992398e-01  -1.5762238804149778e-01  -1.6335632770713640e-01  -1.6843985538417974e-01  -1.7239089452688863e-01  -1.7530389933863608e-01  -1.7724428943937920e-01  -1.7766218205279144e-01  -1.7700608038325208e-01  -1.7529904028356097e-01  -1.7278465541414731e-01  -1.6950073905710136e-01  -1.6554033558461351e-01  -1.6103430477479469e-01  -1.5614282831601461e-01  -1.5091568174670142e-01  -1.4538723754993552e-01  -1.3967192144821455e-01  -1.3377823975771866e-01  -1.2776519986570253e-01  -1.2165434618178919e-01  -1.1546460187111161e-01  -1.0921683303483680e-01  -1.0293433113581940e-01  -9.6621858097221291e-02  -9.0290380810551532e-02  -8.3948783515111466e-02  -7.7605437032786564e-02  -7.1264121858923807e-02  -6.4925734908159019e-02  -5.8596704743105306e-02  -5.2278058304625029e-02  -4.5972709550352417e-02  -3.9681186012096858e-02  -3.3404914311473057e-02  -2.7146038078402931e-02  -2.0903533395320306e-02  -1.4679690368550997e-02  -8.4738200549715446e-03  -2.2867024326325776e-03  3.8811829086875323e-03  1.0030083961698156e-02  1.6159530356139085e-02  2.2269505132494056e-02  2.8359932491217661e-02  3.4430762205840376e-02  4.0481978459688581e-02  4.6513556877587091e-02  5.2525468803658638e-02  5.8517628898259753e-02  5.8516657459922648e-02  5.8514233050484372e-02  5.8510469985606398e-02  5.8505891261389886e-02  5.8501319845681896e-02  5.8497542843203076e-02  5.8495136992720652e-02  5.8494161333462587e-02  -1.3898511830671206e-01  -1.5830494721411309e-01  -3.4280193136030229e-01  -2.8574434318037151e-01  -2.7257117827009647e-01  -2.6202245506804650e-01  -2.4259596825165700e-01  -2.2546960792842213e-01  -2.0939349997568185e-01  -1.9499944972126851e-01  -1.8332016124024902e-01  -1.7190935492909409e-01  -1.6060714068838799e-01  -1.4912565258253890e-01  -1.3722977839194370e-01  -1.2515297748329487e-01  -1.1220910101922871e-01  -1.3364967452268722e-01  -1.1783836101543839e-01  -9.3325601372198863e-02  -5.3989683591126984e-02  -7.6182592691363031e-03  2.7606021890275338e-02  -1.7796442723848774e-01  -1.3384948869891050e-01  3.7387410319392141e-02  2.3796425653472189e-02  -9.1888892717683908e-04  -1.3672491659426375e-01  -8.2718338634773601e-03  1.3527450942456816e-02  -9.8905799442880055e-02  4.5223123815958229e-02  -1.1037591003540170e-01  -9.0643827148844905e-02  5.5347164517650246e-02  -7.2659661049448376e-02  -8.4414955978672435e-02  -4.8277136837543332e-02  4.4449269770976928e-02  -7.0266076546885811e-02  -1.3671236296359851e-01  2.3701029961365368e-02  1.1512038282549538e-02  -1.5346250187749111e-01  -5.4082766764219629e-02  7.8371955851462057e-03  3.2225145641666231e-02  -3.6296666690053998e-02  1.5798383873113258e-02  1.1021888436473845e-02  -6.8386936579120771e-03  -1.7299667262671237e-01  2.7174530497255083e-02  -1.8423408496162214e-02  -1.1180115674141565e-02  -1.7701036994872016e-01  -1.7070714127166617e-01  1.2271362954266117e-02  3.1799768707837815e-02  1.4797536155224469e-03  1.6286500953985528e-02  3.3011573218217218e-02  2.4299088685875433e-02  1.1911621519904186e-02  -1.5374653480711481e-01  4.1232992678879025e-02  4.8710251453312682e-02  -1.3648123209453636e-01  -3.0324725153749571e-01  -3.3838596801636145e-01  -1.1871608180146906e-01  3.5024160181563714e-02  2.2282920806688021e-03  -9.4313271956620523e-02  1.2297389085433709e-02  -6.1933943405699673e-02  4.7914628659178416e-03  -3.0274478224994111e-02  8.4995113595414881e-03  -1.1677915355519224e-02  2.5184278240584019e-02  7.1010670839888644e-03  1.4622474644303329e-02  5.3461811295021214e-02  1.9606248564471747e-03  3.2805301978028702e-02  -1.3302992823078236e-01  1.4170097637831846e-02  -2.0261539345659404e-03  -1.4317230374587522e-01  -1.3479866318160125e-01  -1.6472149701617320e-01  -1.2134484173373827e-01  -1.6334993172124496e-01  -1.0602610696971221e-01  -8.1078696778458095e-02  -4.8387280680162389e-02  -2.5597072562427530e-02  -6.5184446144891009e-02  -8.0617908605571859e-02  -1.0057344251635507e-01  -8.8809946623461863e-03  -2.7575662982002050e-02  4.9985334723926821e-02  2.2991158328091781e-02  -4.4778579454844848e-02  3.1547297292370990e-02  3.7359757858545235e-02  1.9134297533048641e-02  6.6887322582418222e-03  -6.2042091967803581e-02  1.4152693801193361e-02  5.3435050280377157e-02  3.4445154976417112e-02  -7.7126260409061190e-02  5.2188505702046244e-02  5.3897538104277054e-02  3.5687023065274291e-02  3.0357564642253934e-02  -9.1948233732968565e-02  -3.3439863501089973e-04  -8.5459923925493512e-03  1.1082821940905856e-02  -1.0570821884989609e-01  3.2479121471990446e-02  -5.0599183645542154e-04  -1.1867437979965906e-01  -1.3120907150737535e-01  -1.4344241953161777e-01  -1.5452979546999504e-01  -1.6650113958674187e-01  -1.7769343858554021e-01  -1.8939646243544514e-01  -2.0371902777960171e-01  -1.3775375984544952e-01  -2.1903630890864489e-01  -2.3563581414769746e-01  -2.5390106783007882e-01  -1.2682959754039508e-01  -2.7475232511271547e-01  -7.6035959584383681e-02  -1.0636985699315786e-01  -3.2688293771270450e-02  1.2475060300990074e-02  5.3851094627321780e-02  -2.2095252416579159e-01  3.7390185628479412e-03  4.3844166350477103e-02  9.1739000208847909e-03  -1.3374883283980649e-01  -8.3316397015814852e-04  5.3994087318019156e-02  -1.3421295885488010e-01  -1.3393496910717084e-01  -1.3441042437590608e-01  -1.3364320161077009e-01  -1.3413656872958055e-01  -1.3331712234747631e-01  -1.3394954506087292e-01  -1.3278956750032136e-01  -1.3362569140424527e-01  -1.3182237807449099e-01  -1.3314470159729380e-01  -1.3032173198931499e-01  -1.3256806830322146e-01  -1.2885642288294213e-01  -1.3229272464061154e-01  -1.2834783114131007e-01  -1.3295338575101032e-01  -1.2931037465364564e-01  -1.3470751493342303e-01  -1.3230246719631214e-01  -1.3701590197974858e-01  -1.2789355269954863e-01  -1.4057822749844934e-01  -1.4147346626998930e-01  -1.3215662881631762e-01  -1.2979994738774844e-01  -1.4514200737560462e-01  -1.4448827774713735e-01  -1.4729208509251024e-01  -1.4502362594551824e-01  -1.4681729631835680e-01  -1.4304358074205961e-01  -1.4336829413630753e-01  -1.3904106820686354e-01  -1.3797077359470394e-01  -1.3279108077875601e-01  -1.3108708768739766e-01  -1.2596917631996951e-01  -1.2390128894866660e-01  -1.1927431158621038e-01  -1.1706636543836768e-01  -1.1197828953450824e-01  -1.1053998455872215e-01  -1.0612756642212072e-01  -1.0443137364253501e-01  -9.9897067362285402e-02  -9.8118872613652611e-02  -9.3507006903242193e-02  -9.1160580663425098e-02  -8.6412002455809392e-02  -8.3080337273091651e-02  -1.3456496547681585e-01  -1.3517000830355069e-01  -7.8464997858573957e-02  -7.3341189419330322e-02  -6.9782842273264714e-02  -6.2732770878571958e-02  -6.0693476248840028e-02  -5.1936683378704905e-02  -5.1276749143923675e-02  -4.0389462965248868e-02  -4.2107828897731257e-02  -2.9081817258159757e-02  -1.4085975009829291e-01  -3.3530112703525829e-02  -1.8539105089743463e-02  -2.5734010579760137e-02  -9.3326994316079801e-03  -1.9093861154855049e-02  -1.7216712259571162e-03  -1.3882003309150864e-01  -1.4183371947712359e-01  -1.2678145559331919e-01  -1.3206084754447534e-02  4.2774946358905561e-03  -1.3139442151428593e-01  -7.6418701398787807e-03  8.7297411062605447e-03  -3.2539873328447859e-03  1.1602034094570649e-02  8.3037260960212519e-04  1.3147797665826117e-02  -1.3831399791463131e-01  3.8039547919234565e-03  1.3429303655363423e-02  7.3133128606420851e-03  1.3002412435823583e-02  9.9939997521347693e-03  1.1821515810760137e-02  -1.3578890614385955e-01  -1.2058025831234606e-01  1.2250901337694832e-02  1.0556782168478798e-02  -1.4409694256131017e-01  -1.4922907668306626e-01  -1.4095071190634412e-01  -1.0138799901531574e-01  1.4551513564926847e-02  9.3272042068114035e-03  1.6684935747768796e-02  8.7167223178642693e-03  1.8631499457996529e-02  9.0177419160146852e-03  1.4623029541251182e-02  5.6920091266481456e-03  2.3562084215838684e-02  -1.5066456968467272e-02  2.0294141716680390e-02  1.0234168606147034e-02  -8.9376009392797570e-04  3.7793370340950030e-04  1.1885870514501448e-02  3.0701920372394635e-03  1.3736792878987254e-02  6.7438491145284983e-03  1.5494890315701323e-02  1.0930472110322730e-02  1.6611210902256632e-02  1.4479088565577624e-02  1.6617519994497291e-02  1.7126787872991652e-02  1.5290451872819766e-02  1.8315731956161246e-02  1.2854335972114297e-02  1.8592199369908073e-02  9.4799274752618932e-03  1.7533984412490881e-02  6.0094320103914467e-03  1.5932314699524615e-02  2.2603455107295871e-03  1.4223187268765711e-02  -5.4812942639516110e-02  -8.2128728682572413e-02  -1.3016083161668211e-05  1.3072275654780462e-02  -3.3394297370806328e-04  1.2896869566765274e-02  -1.4552144523546973e-01  1.1031648576349225e-03  1.3865263201350739e-02  -1.0281248836457224e-01  -1.2104062208573524e-01  -1.4972521779849435e-01  -1.5634644930984878e-01  -1.5803539615370057e-01  -1.6459215951520731e-01  -1.6870912633921165e-01  -1.7485464548558288e-01  -1.8111083666933925e-01  -1.8601883951895531e-01  -1.9514792618190202e-01  -1.9712152043362707e-01  -2.0901448946479509e-01  -2.0727653999868628e-01  -2.2155636789062416e-01  -2.1654453111502847e-01  -2.3379981158230462e-01  -2.2495594229468072e-01  -2.3824655962739411e-01  -2.2775428823880225e-01  -2.4080449369316687e-01  -2.3158630769934191e-01  -2.4125651366100354e-01  -2.3172737943804481e-01  -2.3958169065324356e-01  -2.3030105813399043e-01  -2.3652978690402213e-01  -2.2782020400244926e-01  -2.3269228338908909e-01  -2.2458890978717985e-01  -2.2258788429352855e-01  -2.1931715543126901e-01  -2.1660349236853879e-01  -2.2086774820263808e-01  -2.1350584445649515e-01  -2.1683811139412937e-01  -2.1007158779459539e-01  -2.1277895949720280e-01  -2.0645798918456679e-01  -2.0659889750374838e-01  -2.0942068589612522e-01  -2.0275258141258709e-01  -2.0420271329950876e-01  -1.9866855856826018e-01  -1.9678638495114953e-01  -1.9316735831468559e-01  -1.9457923980978206e-01  -1.8947331950791693e-01  -1.9030462960610381e-01  -1.8564890309479062e-01  -1.7267900220840504e-01  -1.8606326485772356e-01  -1.8174122606948453e-01  -1.8082402316785809e-01  -1.7719957352934315e-01  -1.7785542218648490e-01  -1.7350691769381793e-01  -1.7393749062631625e-01  -1.6976466573854715e-01  -2.3767385214276474e-01  -2.1288591256743242e-01  -2.0652676259784244e-01  -2.5057081953222088e-01  -1.7001612166542324e-01  -1.6595521311756700e-01  -1.6559959857338574e-01  -1.6188202317440406e-01  -1.6207812282798686e-01  -1.5812435918155546e-01  -1.5812829695387529e-01  -1.5428519855350259e-01  -1.5421231151417661e-01  -1.5048114058183326e-01  -1.5034333470234809e-01  -1.4665285464564276e-01  -1.9114331192202055e-01  -1.4635233506731982e-01  -1.4280298481342746e-01  -2.4947102677954380e-01  -1.8640327488011751e-01  -1.7617741956252508e-01  -2.4087732824805008e-01  -1.4240311499006061e-01  -1.3881781049234398e-01  -1.3944552443602487e-01  -1.3525938825565204e-01  -1.3489059775005732e-01  -1.3121515641755624e-01  -1.3158002775671290e-01  -1.2756846217716528e-01  -1.2715063045145414e-01  -1.2354106881532395e-01  -2.1911952849484323e-01  -1.2308023945079993e-01  -1.1942856936369102e-01  -1.5019532086465071e-01  -1.9416241194591621e-01  -6.0659046205772053e-02  -2.0934354455495735e-01  -1.1990607612891148e-01  -1.1579500431446588e-01  -1.1529094237677827e-01  -1.1167428799493194e-01  4.0514344923632054e-03  1.5644242267103134e-02  8.7496921003121474e-03  1.8308783227449266e-02  1.4656902365536352e-02  2.1270718551753744e-02  -1.1098060160326402e-01  -1.0742660849265942e-01  -2.9996413224974091e-02  -1.0800904081633615e-01  -1.0380005336630846e-01  -1.0332378903545310e-01  -9.9608416921939766e-02  -1.3246604757672353e-01  -1.6322108814482270e-01  -1.7812102191374152e-01  1.6173847997172537e-02  2.0930918878009123e-02  2.4097375219386007e-02  -8.8125747296294125e-03  2.8250260759672369e-02  2.4744538200641181e-02  2.4011737448791405e-02  2.6487162640383938e-02  2.3109015972003023e-02  2.8222445750203020e-02  2.2079074752772765e-02  2.9361892797414791e-02  2.1266727534483897e-02  2.9909747179482613e-02  2.0736570165235575e-02  3.0149468414023061e-02  2.0746404064576320e-02  3.0204529038454365e-02  2.1169559443637926e-02  2.9863501997189824e-02  2.1925610842663562e-02  2.9053929748688541e-02  2.2687469307376806e-02  2.7752511656961482e-02  2.3313748137406675e-02  2.6043755826043010e-02  2.3450702761298348e-02  2.3778458167424965e-02  2.3066553551815576e-02  -9.9103331315036708e-02  -9.5379548898218411e-02  -9.5628317635829588e-02  -9.15384372849