<?xml version="1.0"?>
<VTKFile type="UnstructuredGrid"  version="0.1"  >
<UnstructuredGrid>
<Piece  NumberOfPoints="2945" NumberOfCells="5525">
<Points>
<DataArray  type="Float64"  NumberOfComponents="3"  format="ascii">0 0.1 0  0.95 0.1 0  1 0.1 0  1 0 0  1.5 0 0  3 0 0  3 0.3 0  0 0.3 0  0.0197424558707114 0.1 0  0.03915669042224804 0.1 0  0.05824816022699029 0.1 0  0.07702223050332387 0.1 0  0.09548417327144595 0.1 0  0.1136391897583987 0.1 0  0.1314923700144587 0.1 0  0.1490487330862866 0.1 0  0.1663132263225292 0.1 0  0.1832906857273058 0.1 0  0.1999858946008978 0.1 0  0.216403545770297 0.1 0  0.2325482404045023 0.1 0  0.2484245348165176 0.1 0  0.2640368740372501 0.1 0  0.2793896589642241 0.1 0  0.2944872056237027 0.1 0  0.3093337469555254 0.1 0  0.3239334613687816 0.1 0  0.3382904528528069 0.1 0  0.3524087553122972 0.1 0  0.3662923366391824 0.1 0  0.3799451014768399 0.1 0  0.393370886920506 0.1 0  0.4065734648871676 0.1 0  0.419556546320114 0.1 0  0.4323237821343415 0.1 0  0.4448787573056132 0.1 0  0.4572250047274954 0.1 0  0.4693659926332938 0.1 0  0.4813051343276231 0.1 0  0.4930457849308193 0.1 0  0.5045912455271677 0.1 0  0.5159447600209797 0.1 0  0.5271095174127136 0.1 0  0.5380886618453393 0.1 0  0.5488852725463512 0.1 0  0.5595023868312478 0.1 0  0.5699429904313016 0.1 0  0.5802100167387366 0.1 0  0.5903063508274641 0.1 0  0.6002348329443006 0.1 0  0.6099982499579832 0.1 0  0.6195993483501782 0.1 0  0.6290408246013842 0.1 0  0.6383253354321616 0.1 0  0.6474554910757137 0.1 0  0.6564338522440513 0.1 0  0.6652629482939147 0.1 0  0.6739452579188948 0.1 0  0.6824832240165607 0.1 0  0.6908792415022103 0.1 0  0.6991356755989045 0.1 0  0.7072548438546967 0.1 0  0.7152390281534421 0.1 0  0.7230904746196039 0.1 0  0.7308113906759266 0.1 0  0.7384039435269326 0.1 0  0.7458702676581656 0.1 0  0.7532124631720397 0.1 0  0.7604325921167397 0.1 0  0.7675326856666862 0.1 0  0.7745147374421916 0.1 0  0.7813807123989068 0.1 0  0.7881325374362798 0.1 0  0.7947721131625659 0.1 0  0.8013013031866276 0.1 0  0.8077219449067021 0.1 0  0.8140358419942376 0.1 0  0.8202447685401882 0.1 0  0.8263504700910924 0.1 0  0.8323546643163114 0.1 0  0.8382590362474568 0.1 0  0.8440652473522128 0.1 0  0.8497749272799842 0.1 0  0.8553896837646281 0.1 0  0.8609110933285474 0.1 0  0.866340708855119 0.1 0  0.8716800550492284 0.1 0  0.8769306339052932 0.1 0  0.8820939206038667 0.1 0  0.8871713655604893 0.1 0  0.8921643975475726 0.1 0  0.8970744196575535 0.1 0  0.9019028106970642 0.1 0  0.9066509291259979 0.1 0  0.9113201098984042 0.1 0  0.9159116634553873 0.1 0  0.9204268818729691 0.1 0  0.9248670319440222 0.1 0  0.9292333656649013 0.1 0  0.9335271075812669 0.1 0  0.9377494640511216 0.1 0  0.941901623463222 0.1 0  0.9459847526686701 0.1 0  0.9538461538461205 0.1 0  0.9576923076922409 0.1 0  0.9615384615384381 0.1 0  0.9653846153846337 0.1 0  0.9692307692307542 0.1 0  0.9730769230768747 0.1 0  0.9769230769229952 0.1 0  0.9807692307691157 0.1 0  0.9846153846152361 0.1 0  0.9884615384614317 0.1 0  0.9923076923076356 0.1 0  0.9961538461538395 0.1 0  1 0.09591793123533533 0  1 0.09133596463859224 0  1 0.08619288104391448 0  1 0.08041996484521211 0  1 0.07394008421771697 0  1 0.06666666567302955 0  1 0.05850252932209174 0  1 0.04933859630113544 0  1 0.03905242821848202 0  1 0.02750659386753798 0  1 0.01454683679239736 0  1.015625 0 0  1.03125 0 0  1.046875 0 0  1.0625 0 0  1.078125 0 0  1.09375 0 0  1.109375 0 0  1.125 0 0  1.140625 0 0  1.15625 0 0  1.171875 0 0  1.1875 0 0  1.203125 0 0  1.21875 0 0  1.234375 0 0  1.25 0 0  1.265625 0 0  1.28125 0 0  1.296875 0 0  1.3125 0 0  1.328125 0 0  1.34375 0 0  1.359375 0 0  1.375 0 0  1.390625 0 0  1.40625 0 0  1.421875 0 0  1.4375 0 0  1.453125 0 0  1.46875 0 0  1.484375 0 0  1.515920751924515 0 0  1.531989369316721 0 0  1.54820720925872 0 0  1.564575665560501 0 0  1.581096138674279 0 0  1.597770029901263 0 0  1.614598783332311 0 0  1.631583831055205 0 0  1.64872661129721 0 0  1.666028606716533 0 0  1.683491276608443 0 0  1.701116134125304 0 0  1.718904673324128 0 0  1.736858414799339 0 0  1.754978895814663 0 0  1.773267661782904 0 0  1.791726281103402 0 0  1.810356325314689 0 0  1.8291593848892 0 0  1.848137076690385 0 0  1.867291007717254 0 0  1.886622833871288 0 0  1.90613418642363 0 0  1.925826753299799 0 0  1.945702199101513 0 0  1.96576223584749 0 0  1.986008569283268 0 0  2.006442931928877 0 0  2.02706707547783 0 0  2.047882750887917 0 0  2.06889175187935 0 0  2.090095860038271 0 0  2.111496891648636 0 0  2.133096679109554 0 0  2.154897066851056 0 0  2.176899916687499 0 0  2.199107102752146 0 0  2.22152053937028 0 0  2.244142122958061 0 0  2.266973806444078 0 0  2.290017523268154 0 0  2.313275249499252 0 0  2.336748971745516 0 0  2.360440702338606 0 0  2.384352453384031 0 0  2.408486280477412 0 0  2.432844240041185 0 0  2.457428414757088 0 0  2.482240901796653 0 0  2.507283830121838 0 0  2.532559332080812 0 0  2.558069568787417 0 0  2.583816724966441 0 0  2.60980299606584 0 0  2.636030600971886 0 0  2.662501790984011 0 0  2.689218818279327 0 0  2.716183964547616 0 0  2.743399548861297 0 0  2.77086788244719 0 0  2.798591312896326 0 0  2.826572223178268 0 0  2.854812990138617 0 0  2.883316031690714 0 0  2.912083780657189 0 0  2.941118704633482 0 0  2.970423276998917 0 0  3 0.02999999999994495 0  3 0.05999999999987042 0  3 0.089999999999783 0  3 0.119999999999701 0  3 0.149999999999619 0  3 0.179999999999692 0  3 0.2099999999997737 0  3 0.2399999999998511 0  3 0.2699999999999185 0  2.970138294777171 0.3 0  2.940375666438236 0.3 0  2.910711782853056 0.3 0  2.881146331305122 0.3 0  2.851678975030285 0.3 0  2.822309388626621 0.3 0  2.793037250095074 0.3 0  2.76386223529133 0.3 0  2.734784017903872 0.3 0  2.705802289276642 0.3 0  2.676916713794697 0.3 0  2.648126987654635 0.3 0  2.619432780406184 0.3 0  2.590833779385199 0.3 0  2.562329669847737 0.3 0  2.533920134950189 0.3 0  2.505604855727852 0.3 0  2.477383539822502 0.3 0  2.449255847639465 0.3 0  2.421221492569094 0.3 0  2.393280152486815 0.3 0  2.36543151914496 0.3 0  2.337675285481809 0.3 0  2.310011142385583 0.3 0  2.282438797441587 0.3 0  2.254957931061538 0.3 0  2.227568248063605 0.3 0  2.200269436651085 0.3 0  2.173061204949961 0.3 0  2.145943251515011 0.3 0  2.118915272469994 0.3 0  2.091976978084957 0.3 0  2.065128060700849 0.3 0  2.038368218849433 0.3 0  2.01169717777258 0.3 0  1.985114624111908 0.3 0  1.958620267850966 0.3 0  1.93221382054972 0.3 0  1.905894991850698 0.3 0  1.879663489459713 0.3 0  1.853519019126419 0.3 0  1.827461291053897 0.3 0  1.801490031354372 0.3 0  1.775604937580312 0.3 0  1.74980572560258 0.3 0  1.724092118631866 0.3 0  1.698463829173586 0.3 0  1.672920575782554 0.3 0  1.647462076974085 0.3 0  1.622088043536933 0.3 0  1.5967981978949 0.3 0  1.571592267767068 0.3 0  1.546469970305736 0.3 0  1.521431023814044 0.3 0  1.496475156230927 0.3 0  1.471602093687753 0.3 0  1.446811560490646 0.3 0  1.422103279101731 0.3 0  1.397476971708191 0.3 0  1.37293238939876 0.3 0  1.348469231419202 0.3 0  1.324087248732772 0.3 0  1.299786165921677 0.3 0  1.275565710847046 0.3 0  1.251425617644257 0.3 0  1.227365618676339 0.3 0  1.203385446174014 0.3 0  1.179484853067473 0.3 0  1.155663548773374 0.3 0  1.131921292279077 0.3 0  1.108257802159295 0.3 0  1.084672829009693 0.3 0  1.061166115303374 0.3 0  1.037737392995421 0.3 0  1.01438640299116 0.3 0  0.991112899770314 0.3 0  0.9679166155523955 0.3 0  0.944797284182564 0.3 0  0.921754678526042 0.3 0  0.8987885143602501 0.3 0  0.8758985548820624 0.3 0  0.8530845484099929 0.3 0  0.8303462351786988 0.3 0  0.8076833651172373 0.3 0  0.7850956864865304 0.3 0  0.7625829601354557 0.3 0  0.7401449314598274 0.3 0  0.717781337993959 0.3 0  0.6954919649675473 0.3 0  0.6732765357561226 0.3 0  0.6511348120768439 0.3 0  0.6290665642016573 0.3 0  0.6070715355430467 0.3 0  0.5851494825775325 0.3 0  0.5633001690203812 0.3 0  0.5415233562273221 0.3 0  0.5198187909431873 0.3 0  0.4981862401387795 0.3 0  0.4766254686134248 0.3 0  0.4551362360485234 0.3 0  0.4337182975262159 0.3 0  0.4123714223228037 0.3 0  0.3910953802377493 0.3 0  0.3698899313205595 0.3 0  0.3487548463710963 0.3 0  0.3276898864081783 0.3 0  0.3066948129116018 0.3 0  0.2857694003037476 0.3 0  0.2649134227095047 0.3 0  0.2441266417321288 0.3 0  0.2234088223399122 0.3 0  0.2027597568977288 0.3 0  0.1821792020676698 0.3 0  0.1616669305402443 0.3 0  0.1412227158799362 0.3 0  0.12084633013886 0.3 0  0.1005375673448281 0.3 0  0.08029618164595353 0.3 0  0.06012194778526769 0.3 0  0.04001466495039718 0.3 0  0.01997408913631205 0.3 0  0 0.2800000000000553 0  0 0.2600000000001105 0  0 0.2400000000001658 0  0 0.2200000000002211 0  0 0.2000000000002764 0  0 0.1800000000002244 0  0 0.1600000000001691 0  0 0.140000000000115 0  0 0.1200000000000564 0  1.133778471000506 0.01219539743990768 0  1.003741919047894 0.09354664821474232 0  0.9559421147150347 0.1035858189992458 0  0.9313792160389045 0.1037365237938103 0  0.9788461538460573 0.1033060829993555 0  0.9090102438250753 0.1037269304984056 0  0.8846304212778655 0.1043349840723655 0  0.8581503885465881 0.104741932962923 0  0.8286416220145676 0.1052762843984476 0  0.7982741772533339 0.1053575624517407 0  0.7708789559342691 0.1060290465840416 0  0.741870349714261 0.1078220590984258 0  0.7112469360040695 0.10685702926368 0  0.6783901541417233 0.1079959711853378 0  0.642884733623195 0.1075561996086514 0  0.6056235042367955 0.1085956039602543 0  0.5647007593786924 0.1083187281660325 0  1.1953125 0.01353164693413185 0  1.258148737344733 0.01268350115427042 0  1.320087046516829 0.01426312402966312 0  1.383495130751951 0.01432665475473204 0  1.4453125 0.01315663539200989 0  1.50886768312388 0.01395488397722681 0  0.9942307692307371 0.103330866937657 0  1.119309781943483 0.2802014914557878 0  1.572831235329714 0.01707210522554785 0  1.637611634353954 0.01209340368483431 0  1.709661292005932 0.0146870244871893 0  1.006561890631532 0.07068055446055937 0  1.784793444007901 0.01499371444634687 0  1.855459587353174 0.0
[...]
<PointData  Scalars="pressure"> 
<DataArray  type="Float64"  Name="pressure"  format="ascii">-2.1784763668768570e-01  -5.9276149635500697e-01  -4.2507639892390803e-01  -3.7911584277297711e-01  -1.8434764744167501e-01  0.0000000000000000e+00  0.0000000000000000e+00  -2.1782266830286601e-01  -2.2377034955453601e-01  -2.2959486786807209e-01  -2.3532290505225073e-01  -2.4095610740550122e-01  -2.4649614455151220e-01  -2.5194456317509489e-01  -2.5730296981391643e-01  -2.6257296074891084e-01  -2.6775597795702916e-01  -2.7285370494729289e-01  -2.7786762186070563e-01  -2.8279914470012346e-01  -2.8764987526385721e-01  -2.9242122621949324e-01  -2.9711476363090705e-01  -3.0173188635112003e-01  -3.0627418866139711e-01  -3.1074300124592763e-01  -3.1513994159178066e-01  -3.1946632224720106e-01  -3.2372390326691075e-01  -3.2791396921892318e-01  -3.3203762321779418e-01  -3.3609713886309728e-01  -3.4009357407335838e-01  -3.4402866933236026e-01  -3.4790366656976357e-01  -3.5172034900409177e-01  -3.5548034504128401e-01  -3.5918507450062509e-01  -3.6283634146771038e-01  -3.6643506545965171e-01  -3.6998414949431696e-01  -3.7348458408157786e-01  -3.7693803627176559e-01  -3.8034628015885436e-01  -3.8371138833042795e-01  -3.8703482311722454e-01  -3.9031863111526982e-01  -3.9356455235856402e-01  -3.9677483767649813e-01  -3.9995116948948234e-01  -4.0309562814166028e-01  -4.0621003941491796e-01  -4.0929678849943713e-01  -4.1235767544242297e-01  -4.1539537028532786e-01  -4.1841155543877218e-01  -4.2140870374443873e-01  -4.2438931784289680e-01  -4.2735585262239134e-01  -4.3030942968340402e-01  -4.3325558828048877e-01  -4.3619233636212995e-01  -4.3912537183227196e-01  -4.4205676020979112e-01  -4.4498827592000140e-01  -4.4792526777023189e-01  -4.5086876507084589e-01  -4.5381778061139033e-01  -4.5678048645345443e-01  -4.5975934696137105e-01  -4.6275782211225747e-01  -4.6577708946233232e-01  -4.6881668839606649e-01  -4.7188881872374816e-01  -4.7499192441554527e-01  -4.7813104826878183e-01  -4.8131008693940874e-01  -4.8453253553473591e-01  -4.8780254081832775e-01  -4.9112647921959091e-01  -4.9450715076863871e-01  -4.9794870699165156e-01  -5.0146045892164559e-01  -5.0504832745980255e-01  -5.0871526433190251e-01  -5.1247151315887285e-01  -5.1632738697033576e-01  -5.2028713124847770e-01  -5.2435907625052380e-01  -5.2856874735271009e-01  -5.3291629238104843e-01  -5.3742143734077019e-01  -5.4209811215510739e-01  -5.4698026202210925e-01  -5.5208392298608577e-01  -5.5743829364129249e-01  -5.6310418441359855e-01  -5.6911919769876473e-01  -5.7553739924883551e-01  -5.8247674442289210e-01  -5.9005073854073953e-01  -5.9786527166592407e-01  -6.1096264729903349e-01  -6.3704709411269289e-01  -6.6942840589062269e-01  -6.7818296762070196e-01  -6.7334885554161628e-01  -6.5673576490496033e-01  -6.3234715876631753e-01  -6.0246433461263260e-01  -5.6978123367448097e-01  -5.3577786494282198e-01  -5.0211818575533251e-01  -4.7138536289487243e-01  -4.3506774594597514e-01  -4.2754619474628269e-01  -4.0556864605428994e-01  -3.9864437094455318e-01  -3.9319438144630142e-01  -3.8927019558762627e-01  -3.8604733342847597e-01  -3.8332028025854320e-01  -3.8113200632625033e-01  -3.7953485705263373e-01  -3.7864088524172357e-01  -3.7868086250005573e-01  -3.7966834446893472e-01  -3.7947025457096539e-01  -3.7803795770074416e-01  -3.7547540041943411e-01  -3.7191377715151486e-01  -3.6759754315090959e-01  -3.6281453120967233e-01  -3.5784273205023387e-01  -3.5305919895539811e-01  -3.4874038834191490e-01  -3.4506361408428415e-01  -3.4209582988398851e-01  -3.3980345121947569e-01  -3.3804854600753115e-01  -3.3661152379795017e-01  -3.3521097856316956e-01  -3.3351891476849116e-01  -3.3123674337529591e-01  -3.2806886678503450e-01  -3.2358014743366287e-01  -3.1788769958675944e-01  -3.1059254084793581e-01  -3.0178595696856475e-01  -2.9153525016184723e-01  -2.7994308221426328e-01  -2.6725175661105210e-01  -2.5367433890311542e-01  -2.3958801157693552e-01  -2.2530083143996277e-01  -2.1113226655985642e-01  -1.9739257747582012e-01  -1.7202177284303061e-01  -1.6078401244464555e-01  -1.5077005437956373e-01  -1.4221089657435992e-01  -1.3499494981771207e-01  -1.2930884085474326e-01  -1.2501578282746537e-01  -1.2215791284268025e-01  -1.2065873735598573e-01  -1.2037110728282470e-01  -1.2116878069549973e-01  -1.2291751591553025e-01  -1.2546982085841962e-01  -1.2859530547785600e-01  -1.3205687799229657e-01  -1.3554297816677577e-01  -1.3870473776452308e-01  -1.4104224010115307e-01  -1.4238160083141735e-01  -1.4218731606753507e-01  -1.4026637324574665e-01  -1.3656464978707408e-01  -1.3112637235833510e-01  -1.2420223072277264e-01  -1.1620754236515575e-01  -1.0751470562605392e-01  -9.8907236784374547e-02  -9.0587571209148510e-02  -8.3089292883655838e-02  -7.6714048074487354e-02  -7.1565273154759287e-02  -6.7692534247995775e-02  -6.5040041671613008e-02  -6.3473381632994208e-02  -6.2825548166592457e-02  -6.2895356824247878e-02  -6.3500593683519069e-02  -6.4458679363658594e-02  -6.5617058557478070e-02  -6.6824762184025208e-02  -6.7940712924600161e-02  -6.8809629946979922e-02  -6.9254022123055314e-02  -6.9066962017107575e-02  -6.8033327747539452e-02  -6.5954372557271990e-02  -6.2660414470893794e-02  -5.8102951903078917e-02  -5.2409977323698606e-02  -4.5775017858155992e-02  -3.8385100358937330e-02  -3.1041942682442560e-02  -2.3675880776778721e-02  -1.7135702772325467e-02  -1.1537891206702174e-02  -6.9492155106174285e-03  -3.7350016096699737e-03  -1.6334819333940797e-03  -6.2724038644672612e-04  -5.5329524851611099e-04  -1.2412173980710047e-03  -2.4930810596138957e-03  -4.0389328039245912e-03  -5.5459489887172775e-03  -6.4933938988792125e-03  -6.3503603393223647e-03  -4.3126732526866871e-03  0.0000000000000000e+00  0.0000000000000000e+00  0.0000000000000000e+00  0.0000000000000000e+00  0.0000000000000000e+00  0.0000000000000000e+00  0.0000000000000000e+00  0.0000000000000000e+00  0.0000000000000000e+00  1.7058211026533476e-03  7.9728066651229960e-04  -2.6590189159461544e-03  -8.0495322802561099e-03  -1.4787483034560808e-02  -2.1927305989940322e-02  -2.8555790582882559e-02  -3.3859908333640817e-02  -3.7298208940008987e-02  -3.8715287881140446e-02  -3.8324094526843100e-02  -3.6606873592347308e-02  -3.4160487982757323e-02  -3.1521962163092554e-02  -2.9091603361792964e-02  -2.7112294079895620e-02  -2.5722029201073322e-02  -2.5076271579391640e-02  -2.5354227149178340e-02  -2.6821047108203763e-02  -2.9768370106416094e-02  -3.4457393899614941e-02  -4.1029431932092519e-02  -4.9416109152495037e-02  -5.9382426032297729e-02  -7.0281383300358491e-02  -8.1319395240460529e-02  -9.1634719746597357e-02  -1.0028907799821214e-01  -1.0667073438303425e-01  -1.1043378290304216e-01  -1.1172222630027234e-01  -1.1079013702911646e-01  -1.0845300110199919e-01  -1.0515349663420460e-01  -1.0170753120169949e-01  -9.8710482863393192e-02  -9.6720342070336696e-02  -9.6263640957480412e-02  -9.7677906545780235e-02  -1.0141757466564841e-01  -1.0791625151715771e-01  -1.1718721831494001e-01  -1.2921117202221902e-01  -1.4357721890624650e-01  -1.5953779536203810e-01  -1.7602544836183609e-01  -1.9191130623162847e-01  -2.0633150475111553e-01  -2.1853490580245086e-01  -2.2822289347832669e-01  -2.3565144821950654e-01  -2.4133423627837206e-01  -2.4604237412958282e-01  -2.5025672142685002e-01  -2.5449700601327357e-01  -2.5898611880508621e-01  -2.6382744387843815e-01  -2.6906445477843310e-01  -2.7478554517476494e-01  -2.8112599781556152e-01  -2.8827220284788213e-01  -2.9630210265600421e-01  -3.0529792513705772e-01  -3.1517188117735390e-01  -3.2569932113409750e-01  -3.3669387354239089e-01  -3.4787002409537160e-01  -3.5902330127706178e-01  -3.7004494384297554e-01  -3.8076574179221240e-01  -3.9134162278894047e-01  -4.0156119098233328e-01  -4.1132303094964540e-01  -4.2022601301250273e-01  -4.2839589188344612e-01  -4.3517560489824614e-01  -4.4068682760586858e-01  -4.4491471465298654e-01  -4.4717542645987352e-01  -4.4804824498063733e-01  -4.4755304720452699e-01  -4.4600994431916757e-01  -4.4347118428555626e-01  -4.4007577223942945e-01  -4.3599508740026605e-01  -4.3143495106081697e-01  -4.2645796336199165e-01  -4.2111522258538697e-01  -4.1554395959217905e-01  -4.0975803984684472e-01  -4.0382818169649892e-01  -3.9778074286188975e-01  -3.9163907366535539e-01  -3.8542793664507791e-01  -3.7917433901847575e-01  -3.7288368600299915e-01  -3.6656917028062591e-01  -3.6024070079111420e-01  -3.5390780493242796e-01  -3.4757472177623272e-01  -3.4124261032303771e-01  -3.3491862334365613e-01  -3.2860391394003674e-01  -3.2230174702028880e-01  -3.1601268331122628e-01  -3.0973835324868532e-01  -3.0348107797116919e-01  -2.9723977343490732e-01  -2.9101693500754450e-01  -2.8481183094458229e-01  -2.7862531412779629e-01  -2.7245791461048130e-01  -2.6630937447828323e-01  -2.6018021145905823e-01  -2.5407045090109004e-01  -2.4798018156447077e-01  -2.4190946435976229e-01  -2.3585832228052656e-01  -2.2982678653981006e-01  -2.2381489335069712e-01  -2.1782273814581327e-01  -2.1782376687606572e-01  -2.1782633087566891e-01  -2.1783030829837460e-01  -2.1783514669324758e-01  -2.1783997734402397e-01  -2.1784396952214974e-01  -2.1784651387173318e-01  -2.1784754714076224e-01  -3.5505295505792389e-01  -4.0776988657415991e-01  -6.5886821730381440e-01  -5.7999083820985053e-01  -5.7220700478197684e-01  -5.5004912256145588e-01  -5.2680198195497896e-01  -5.0712041730338098e-01  -4.8925046608859835e-01  -4.7367893483594103e-01  -4.6129704498407825e-01  -4.4937998260868883e-01  -4.3771760592353748e-01  -4.2598044547091068e-01  -4.1390546529199457e-01  -4.0170933212663029e-01  -3.8868395013129142e-01  -3.4050159663310414e-01  -3.3388129963049135e-01  -3.2084968221648286e-01  -2.8587472749569504e-01  -2.3347479359830622e-01  -1.7860208893935056e-01  -4.4499753490565286e-01  -3.7512669981580438e-01  -1.3938816599287085e-01  -1.2186440469325961e-01  -1.2382063428689440e-01  -3.8835951998715396e-01  -1.3709942857467039e-01  -1.4162958183969199e-01  -3.7532906797788823e-01  -1.2091235218974020e-01  -3.3065950440281211e-01  -2.9128443747581667e-01  -8.5966746904347580e-02  -2.6576406326674945e-01  -3.6080447037386920e-01  -2.4388396852282715e-01  -6.6395914982458698e-02  -3.4663613779790103e-01  -3.6949011737771559e-01  -6.2874920470079698e-02  -2.0011904054925936e-01  -4.0526590415470254e-01  -3.3043994828583251e-01  -6.7071135610204377e-02  -1.1241153317899363e-01  -3.1264616353375102e-01  -9.6535270292106304e-02  -6.8541116682781789e-02  -9.9788873260342706e-02  -4.3681937606756099e-01  -5.5081445917177688e-02  -2.9476883917272972e-01  -1.0944990459329756e-01  -4.4730237085318791e-01  -4.4439810385472067e-01  -1.0910203935386066e-01  -2.7950843273167995e-02  -2.7486342110906914e-01  -2.6005584028938700e-01  -1.5228183482528448e-01  -9.1977340243446677e-03  -6.4746190633810429e-04  -4.2915922355716463e-01  -8.7071202625099209e-02  -4.4905415214492560e-02  -4.1241494197452266e-01  -6.0360713560190760e-01  -6.5615245127464616e-01  -3.9486574352317161e-01  -2.8056660277789733e-02  -1.2897040920465041e-03  -3.7058130461639865e-01  -2.6004551954596625e-02  -3.3825320505593753e-01  -3.2361011290650832e-02  -3.0660869721515849e-01  -3.8696764497370903e-02  -2.8801551020625760e-01  -2.5115574938743268e-01  -2.6923820758149869e-01  -3.2116184000880323e-02  -2.2287936057126245e-01  -1.0173846774292671e-03  -2.4353658071206857e-01  -3.8097680795464872e-01  -1.2587442464195213e-02  -5.7380782325394501e-03  -3.9512479122548649e-01  -3.7657554770892909e-01  -4.2276644761225263e-01  -3.5325389895323067e-01  -4.3810299061855096e-01  -3.8225225226018883e-01  -3.5737553943834188e-01  -3.2471507338013061e-01  -2.3206018370831963e-01  -2.5602248287188917e-01  -2.7661225127017908e-01  -3.0951001119512866e-01  -2.8522513244522169e-01  -3.0392284793451912e-01  -6.5489515176482993e-02  -2.4887645969277599e-02  -3.2113114093790340e-01  -4.3086144154528008e-02  -2.3898050368499116e-01  -6.4384483370435508e-02  -6.8815957806175693e-02  -3.3840467103575816e-01  -6.4702283919831516e-02  -2.2290560436109794e-01  -6.2931242631025161e-02  -3.5350452268778998e-01  -7.5023589108709113e-02  -1.0282983169524648e-01  -1.5673687734924180e-01  -1.3490082847342910e-01  -3.6835301517573638e-01  -1.4162054293045800e-01  -1.2987663135622443e-01  -1.2061157084815372e-01  -3.8215470731017326e-01  -1.2739801780280333e-01  -4.6420006775873424e-03  -3.9518515029106194e-01  -4.0781872640339939e-01  -4.2020249267383813e-01  -4.3149290087717024e-01  -4.4378395392851272e-01  -4.5540033103855865e-01  -4.6771260419556870e-01  -4.8306667156959715e-01  -3.4641480636236360e-01  -4.9990364992839376e-01  -5.1871645135224942e-01  -5.4020216066018267e-01  -3.3681218866996360e-01  -5.6588442330287769e-01  -3.0683181634398249e-01  -3.2901711857601906e-01  -2.6331213864779446e-01  -2.0537847032390347e-01  -2.2249049637976570e-01  -5.0472508037160180e-01  2.4680226896628236e-03  -2.3249758490952510e-01  -7.2162734855961365e-04  -3.7909347893818640e-01  -4.2734885229951383e-03  -2.2234629941160866e-01  -3.7831062880154309e-01  -3.7788519266285409e-01  -3.7613106078052083e-01  -3.7820845500786099e-01  -3.7638046121624918e-01  -3.7910228112604588e-01  -3.7681631478554639e-01  -3.8028243291478475e-01  -3.7745762029950625e-01  -3.8148339540954707e-01  -3.7775757430195611e-01  -3.8233410555474018e-01  -3.7728781998394406e-01  -3.8220865473653615e-01  -3.7577504045196103e-01  -3.8079177915647322e-01  -3.7298828887838209e-01  -3.7827661329655882e-01  -3.6967952118145064e-01  -3.7515836222130444e-01  -3.6633202059680930e-01  -3.8360168869470723e-01  -3.5948676833143434e-01  -3.5701375736977919e-01  -3.8063778917592495e-01  -3.8867865881274222e-01  -3.4979225305146350e-01  -3.4810853554127635e-01  -3.4193839936496290e-01  -3.4094676708364635e-01  -3.3549509684989182e-01  -3.3570144311305045e-01  -3.3169246071413111e-01  -3.3253080848413941e-01  -3.3006166050277241e-01  -3.3122375219823863e-01  -3.3036133914037757e-01  -3.3054343378911671e-01  -3.3155681221727951e-01  -3.3040873075322336e-01  -3.3272967424916472e-01  -3.2899107989645870e-01  -3.3269485739089738e-01  -3.2740788308258700e-01  -3.3085157980422758e-01  -3.2348618579326305e-01  -3.2652836833976939e-01  -3.1734172924815207e-01  -3.1957750941794555e-01  -3.0920785656619992e-01  -3.0986102641138896e-01  -3.8608435527242319e-01  -3.9378696832701332e-01  -2.9941739343271373e-01  -2.9863479450084168e-01  -2.8873065292947531e-01  -2.8538259954400336e-01  -2.7737011685051732e-01  -2.7270565471218183e-01  -2.6600464115250605e-01  -2.5937775953276404e-01  -2.5510163470322039e-01  -2.4638891312962530e-01  -3.5567457120748952e-01  -2.4493434744379453e-01  -2.3407685284538465e-01  -2.3562435563132270e-01  -2.2282968675069481e-01  -2.2743706421567628e-01  -2.1275645379103825e-01  -3.9187321032529188e-01  -3.9990181520661006e-01  -3.8699102462642582e-01  -2.2010346762161220e-01  -2.0376094718396559e-01  -3.9566115166873289e-01  -2.1315796956027686e-01  -1.9574409858666919e-01  -2.0721741433390231e-01  -1.8869714691101833e-01  -2.0131138365335535e-01  -1.8227894065090514e-01  -3.3694405988187692e-01  -1.9634799630329419e-01  -1.7648531777212131e-01  -1.8959383338936714e-01  -1.7059317636348320e-01  -1.8273065331457028e-01  -1.6490048935648660e-01  -3.7061233866681970e-01  -3.2925411621348943e-01  -1.7512646726353101e-01  -1.5919708686868769e-01  -3.9796991816923727e-01  -4.0761052025766009e-01  -3.8952048096747677e-01  -3.1924469414856493e-01  -1.6782863669711684e-01  -1.5330796778418190e-01  -1.5901559529614959e-01  -1.4756635154479877e-01  -1.4994531908582651e-01  -1.4225393210593956e-01  -1.9644191096895816e-01  -1.4438053083062347e-01  -1.6924071653100725e-01  -2.3545939182872147e-01  -1.4100612303430723e-01  -1.3705438396154515e-01  -1.3826234832304429e-01  -1.3668929090894341e-01  -1.3213335363349166e-01  -1.3497725525833607e-01  -1.2751505438784821e-01  -1.3282467862072708e-01  -1.2306920102672336e-01  -1.2980424380186212e-01  -1.1876004198872427e-01  -1.2613680375523961e-01  -1.1477188965723287e-01  -1.2179076971172173e-01  -1.1092143958412773e-01  -1.1704747468987048e-01  -1.0787698238614322e-01  -1.1261141025702195e-01  -1.0557904141742347e-01  -1.0821519624338825e-01  -1.0412096675407148e-01  -1.0457869595512007e-01  -1.0365316003411182e-01  -1.0188432223909617e-01  -2.7985221529199222e-01  -2.9777656859477347e-01  -1.0402950749120700e-01  -1.0003990414050046e-01  -1.0468263557740472e-01  -9.8882085240538903e-02  -3.3246159527979569e-01  -1.0533062273181450e-01  -9.7804050343733212e-02  -3.3253622931015508e-01  -3.3339513462004705e-01  -4.0405535202641385e-01  -4.1366655863719459e-01  -4.1891896912162879e-01  -4.2530158437965604e-01  -4.3173047494502892e-01  -4.3812203079357237e-01  -4.4627833549660839e-01  -4.5173591175301936e-01  -4.6291220948978229e-01  -4.6532697517559185e-01  -4.7973451907952175e-01  -4.7792777103010547e-01  -4.9530929812721008e-01  -4.8966469628106429e-01  -5.1086408854664855e-01  -5.0050998420161197e-01  -5.1700404598301664e-01  -5.0463052023357680e-01  -5.2079550841424171e-01  -5.0998202106719148e-01  -5.2205183116704934e-01  -5.1083979508782973e-01  -5.2068353292108749e-01  -5.0977669715897866e-01  -5.1761647912667541e-01  -5.0741271503861796e-01  -5.1359370760777234e-01  -5.0416132427387916e-01  -4.9958312226052004e-01  -4.9756523127063784e-01  -4.9496447202386817e-01  -5.0032283383281928e-01  -4.9189462380493831e-01  -4.9610308029559441e-01  -4.8841547042547362e-01  -4.9182070322586430e-01  -4.8471337754304383e-01  -4.8407227940955416e-01  -4.8836707985249922e-01  -4.8090089180777756e-01  -4.8282320807433504e-01  -4.7667863700428720e-01  -4.7426840538816312e-01  -4.7061067004172030e-01  -4.7245504945005290e-01  -4.6686582075864674e-01  -4.6802725110356086e-01  -4.6297053919649694e-01  -4.3705346588549543e-01  -4.6364436492505434e-01  -4.5899448410271665e-01  -4.5775393783999468e-01  -4.5412227930483362e-01  -4.5504833261566652e-01  -4.5041267310537292e-01  -4.5106737884608300e-01  -4.4664422065912884e-01  -5.1507616352861219e-01  -4.8566173319130246e-01  -4.7641542094015954e-01  -5.3247923055114355e-01  -4.4710943408076215e-01  -4.4280872682297917e-01  -4.4224749757952742e-01  -4.3853320657444372e-01  -4.3889858012340166e-01  -4.3477276429188216e-01  -4.3491354008435884e-01  -4.3092366447335445e-01  -4.3070485684839543e-01  -4.2699163534800705e-01  -4.2697149609025886e-01  -4.2317075846812974e-01  -4.6803607072905323e-01  -4.2296613408996170e-01  -4.1932217759650808e-01  -5.3247408239422855e-01  -4.5201921629575270e-01  -4.5275619343171136e-01  -5.2325463719808807e-01  -4.1900028088585412e-01  -4.1533247301925197e-01  -4.1587843373578726e-01  -4.1169852948359476e-01  -4.1140089063045243e-01  -4.0766035948900586e-01  -4.0795236388474115e-01  -4.0395649488417013e-01  -4.0359834160036612e-01  -3.9993969223957859e-01  -4.9903279730820438e-01  -3.9952727762440726e-01  -3.9583353577322750e-01  -4.2656361567264051e-01  -4.7225511130022463e-01  -2.7038751938197891e-01  -4.8858370044794097e-01  -3.9626220883163676e-01  -3.9216332314200281e-01  -3.9169948982602043e-01  -3.8805105815541641e-01  -1.0570697301057140e-01  -9.6801568243810920e-02  -1.0506713779293274e-01  -9.5046810788816757e-02  -1.0297335562236704e-01  -9.2494876246661639e-02  -3.8739020746515845e-01  -3.8380894740913907e-01  -2.3339372096186456e-01  -3.8435873436073703e-01  -3.8015857125159574e-01  -3.7970903193803446e-01  -3.7597302913362024e-01  -3.8221063113455878e-01  -4.2189836629610905e-01  -4.5552505940988952e-01  -1.3304102840325444e-01  -9.9334103589363884e-02  -8.8954088499449580e-02  -1.3742353978750577e-01  -1.0196684887410259e-01  -8.1227435292204497e-02  -7.8746612381232595e-02  -8.4549693692305361e-02  -7.5851416668338487e-02  -7.9362548227005406e-02  -7.2738653179639151e-02  -7.3824134772183400e-02  -6.9635195635769351e-02  -6.8192427928465443e-02  -6.6510376498378307e-02  -6.2745702888398744e-02  -6.3427368124743894e-02  -5.7566447119035045e-02  -6.0446214728795945e-02  -5.2838259270038851e-02  -5.7466579963491964e-02  -4.8716000945872064e-