<?xml version="1.0"?>
<VTKFile type="UnstructuredGrid"  version="0.1"  >
<UnstructuredGrid>
<Piece  NumberOfPoints="2945" NumberOfCells="5525">
<Points>
<DataArray  type="Float64"  NumberOfComponents="3"  format="ascii">0 0.1 0  0.95 0.1 0  1 0.1 0  1 0 0  1.5 0 0  3 0 0  3 0.3 0  0 0.3 0  0.0197424558707114 0.1 0  0.03915669042224804 0.1 0  0.05824816022699029 0.1 0  0.07702223050332387 0.1 0  0.09548417327144595 0.1 0  0.1136391897583987 0.1 0  0.1314923700144587 0.1 0  0.1490487330862866 0.1 0  0.1663132263225292 0.1 0  0.1832906857273058 0.1 0  0.1999858946008978 0.1 0  0.216403545770297 0.1 0  0.2325482404045023 0.1 0  0.2484245348165176 0.1 0  0.2640368740372501 0.1 0  0.2793896589642241 0.1 0  0.2944872056237027 0.1 0  0.3093337469555254 0.1 0  0.3239334613687816 0.1 0  0.3382904528528069 0.1 0  0.3524087553122972 0.1 0  0.3662923366391824 0.1 0  0.3799451014768399 0.1 0  0.393370886920506 0.1 0  0.4065734648871676 0.1 0  0.419556546320114 0.1 0  0.4323237821343415 0.1 0  0.4448787573056132 0.1 0  0.4572250047274954 0.1 0  0.4693659926332938 0.1 0  0.4813051343276231 0.1 0  0.4930457849308193 0.1 0  0.5045912455271677 0.1 0  0.5159447600209797 0.1 0  0.5271095174127136 0.1 0  0.5380886618453393 0.1 0  0.5488852725463512 0.1 0  0.5595023868312478 0.1 0  0.5699429904313016 0.1 0  0.5802100167387366 0.1 0  0.5903063508274641 0.1 0  0.6002348329443006 0.1 0  0.6099982499579832 0.1 0  0.6195993483501782 0.1 0  0.6290408246013842 0.1 0  0.6383253354321616 0.1 0  0.6474554910757137 0.1 0  0.6564338522440513 0.1 0  0.6652629482939147 0.1 0  0.6739452579188948 0.1 0  0.6824832240165607 0.1 0  0.6908792415022103 0.1 0  0.6991356755989045 0.1 0  0.7072548438546967 0.1 0  0.7152390281534421 0.1 0  0.7230904746196039 0.1 0  0.7308113906759266 0.1 0  0.7384039435269326 0.1 0  0.7458702676581656 0.1 0  0.7532124631720397 0.1 0  0.7604325921167397 0.1 0  0.7675326856666862 0.1 0  0.7745147374421916 0.1 0  0.7813807123989068 0.1 0  0.7881325374362798 0.1 0  0.7947721131625659 0.1 0  0.8013013031866276 0.1 0  0.8077219449067021 0.1 0  0.8140358419942376 0.1 0  0.8202447685401882 0.1 0  0.8263504700910924 0.1 0  0.8323546643163114 0.1 0  0.8382590362474568 0.1 0  0.8440652473522128 0.1 0  0.8497749272799842 0.1 0  0.8553896837646281 0.1 0  0.8609110933285474 0.1 0  0.866340708855119 0.1 0  0.8716800550492284 0.1 0  0.8769306339052932 0.1 0  0.8820939206038667 0.1 0  0.8871713655604893 0.1 0  0.8921643975475726 0.1 0  0.8970744196575535 0.1 0  0.9019028106970642 0.1 0  0.9066509291259979 0.1 0  0.9113201098984042 0.1 0  0.9159116634553873 0.1 0  0.9204268818729691 0.1 0  0.9248670319440222 0.1 0  0.9292333656649013 0.1 0  0.9335271075812669 0.1 0  0.9377494640511216 0.1 0  0.941901623463222 0.1 0  0.9459847526686701 0.1 0  0.9538461538461205 0.1 0  0.9576923076922409 0.1 0  0.9615384615384381 0.1 0  0.9653846153846337 0.1 0  0.9692307692307542 0.1 0  0.9730769230768747 0.1 0  0.9769230769229952 0.1 0  0.9807692307691157 0.1 0  0.9846153846152361 0.1 0  0.9884615384614317 0.1 0  0.9923076923076356 0.1 0  0.9961538461538395 0.1 0  1 0.09591793123533533 0  1 0.09133596463859224 0  1 0.08619288104391448 0  1 0.08041996484521211 0  1 0.07394008421771697 0  1 0.06666666567302955 0  1 0.05850252932209174 0  1 0.04933859630113544 0  1 0.03905242821848202 0  1 0.02750659386753798 0  1 0.01454683679239736 0  1.015625 0 0  1.03125 0 0  1.046875 0 0  1.0625 0 0  1.078125 0 0  1.09375 0 0  1.109375 0 0  1.125 0 0  1.140625 0 0  1.15625 0 0  1.171875 0 0  1.1875 0 0  1.203125 0 0  1.21875 0 0  1.234375 0 0  1.25 0 0  1.265625 0 0  1.28125 0 0  1.296875 0 0  1.3125 0 0  1.328125 0 0  1.34375 0 0  1.359375 0 0  1.375 0 0  1.390625 0 0  1.40625 0 0  1.421875 0 0  1.4375 0 0  1.453125 0 0  1.46875 0 0  1.484375 0 0  1.515920751924515 0 0  1.531989369316721 0 0  1.54820720925872 0 0  1.564575665560501 0 0  1.581096138674279 0 0  1.597770029901263 0 0  1.614598783332311 0 0  1.631583831055205 0 0  1.64872661129721 0 0  1.666028606716533 0 0  1.683491276608443 0 0  1.701116134125304 0 0  1.718904673324128 0 0  1.736858414799339 0 0  1.754978895814663 0 0  1.773267661782904 0 0  1.791726281103402 0 0  1.810356325314689 0 0  1.8291593848892 0 0  1.848137076690385 0 0  1.867291007717254 0 0  1.886622833871288 0 0  1.90613418642363 0 0  1.925826753299799 0 0  1.945702199101513 0 0  1.96576223584749 0 0  1.986008569283268 0 0  2.006442931928877 0 0  2.02706707547783 0 0  2.047882750887917 0 0  2.06889175187935 0 0  2.090095860038271 0 0  2.111496891648636 0 0  2.133096679109554 0 0  2.154897066851056 0 0  2.176899916687499 0 0  2.199107102752146 0 0  2.22152053937028 0 0  2.244142122958061 0 0  2.266973806444078 0 0  2.290017523268154 0 0  2.313275249499252 0 0  2.336748971745516 0 0  2.360440702338606 0 0  2.384352453384031 0 0  2.408486280477412 0 0  2.432844240041185 0 0  2.457428414757088 0 0  2.482240901796653 0 0  2.507283830121838 0 0  2.532559332080812 0 0  2.558069568787417 0 0  2.583816724966441 0 0  2.60980299606584 0 0  2.636030600971886 0 0  2.662501790984011 0 0  2.689218818279327 0 0  2.716183964547616 0 0  2.743399548861297 0 0  2.77086788244719 0 0  2.798591312896326 0 0  2.826572223178268 0 0  2.854812990138617 0 0  2.883316031690714 0 0  2.912083780657189 0 0  2.941118704633482 0 0  2.970423276998917 0 0  3 0.02999999999994495 0  3 0.05999999999987042 0  3 0.089999999999783 0  3 0.119999999999701 0  3 0.149999999999619 0  3 0.179999999999692 0  3 0.2099999999997737 0  3 0.2399999999998511 0  3 0.2699999999999185 0  2.970138294777171 0.3 0  2.940375666438236 0.3 0  2.910711782853056 0.3 0  2.881146331305122 0.3 0  2.851678975030285 0.3 0  2.822309388626621 0.3 0  2.793037250095074 0.3 0  2.76386223529133 0.3 0  2.734784017903872 0.3 0  2.705802289276642 0.3 0  2.676916713794697 0.3 0  2.648126987654635 0.3 0  2.619432780406184 0.3 0  2.590833779385199 0.3 0  2.562329669847737 0.3 0  2.533920134950189 0.3 0  2.505604855727852 0.3 0  2.477383539822502 0.3 0  2.449255847639465 0.3 0  2.421221492569094 0.3 0  2.393280152486815 0.3 0  2.36543151914496 0.3 0  2.337675285481809 0.3 0  2.310011142385583 0.3 0  2.282438797441587 0.3 0  2.254957931061538 0.3 0  2.227568248063605 0.3 0  2.200269436651085 0.3 0  2.173061204949961 0.3 0  2.145943251515011 0.3 0  2.118915272469994 0.3 0  2.091976978084957 0.3 0  2.065128060700849 0.3 0  2.038368218849433 0.3 0  2.01169717777258 0.3 0  1.985114624111908 0.3 0  1.958620267850966 0.3 0  1.93221382054972 0.3 0  1.905894991850698 0.3 0  1.879663489459713 0.3 0  1.853519019126419 0.3 0  1.827461291053897 0.3 0  1.801490031354372 0.3 0  1.775604937580312 0.3 0  1.74980572560258 0.3 0  1.724092118631866 0.3 0  1.698463829173586 0.3 0  1.672920575782554 0.3 0  1.647462076974085 0.3 0  1.622088043536933 0.3 0  1.5967981978949 0.3 0  1.571592267767068 0.3 0  1.546469970305736 0.3 0  1.521431023814044 0.3 0  1.496475156230927 0.3 0  1.471602093687753 0.3 0  1.446811560490646 0.3 0  1.422103279101731 0.3 0  1.397476971708191 0.3 0  1.37293238939876 0.3 0  1.348469231419202 0.3 0  1.324087248732772 0.3 0  1.299786165921677 0.3 0  1.275565710847046 0.3 0  1.251425617644257 0.3 0  1.227365618676339 0.3 0  1.203385446174014 0.3 0  1.179484853067473 0.3 0  1.155663548773374 0.3 0  1.131921292279077 0.3 0  1.108257802159295 0.3 0  1.084672829009693 0.3 0  1.061166115303374 0.3 0  1.037737392995421 0.3 0  1.01438640299116 0.3 0  0.991112899770314 0.3 0  0.9679166155523955 0.3 0  0.944797284182564 0.3 0  0.921754678526042 0.3 0  0.8987885143602501 0.3 0  0.8758985548820624 0.3 0  0.8530845484099929 0.3 0  0.8303462351786988 0.3 0  0.8076833651172373 0.3 0  0.7850956864865304 0.3 0  0.7625829601354557 0.3 0  0.7401449314598274 0.3 0  0.717781337993959 0.3 0  0.6954919649675473 0.3 0  0.6732765357561226 0.3 0  0.6511348120768439 0.3 0  0.6290665642016573 0.3 0  0.6070715355430467 0.3 0  0.5851494825775325 0.3 0  0.5633001690203812 0.3 0  0.5415233562273221 0.3 0  0.5198187909431873 0.3 0  0.4981862401387795 0.3 0  0.4766254686134248 0.3 0  0.4551362360485234 0.3 0  0.4337182975262159 0.3 0  0.4123714223228037 0.3 0  0.3910953802377493 0.3 0  0.3698899313205595 0.3 0  0.3487548463710963 0.3 0  0.3276898864081783 0.3 0  0.3066948129116018 0.3 0  0.2857694003037476 0.3 0  0.2649134227095047 0.3 0  0.2441266417321288 0.3 0  0.2234088223399122 0.3 0  0.2027597568977288 0.3 0  0.1821792020676698 0.3 0  0.1616669305402443 0.3 0  0.1412227158799362 0.3 0  0.12084633013886 0.3 0  0.1005375673448281 0.3 0  0.08029618164595353 0.3 0  0.06012194778526769 0.3 0  0.04001466495039718 0.3 0  0.01997408913631205 0.3 0  0 0.2800000000000553 0  0 0.2600000000001105 0  0 0.2400000000001658 0  0 0.2200000000002211 0  0 0.2000000000002764 0  0 0.1800000000002244 0  0 0.1600000000001691 0  0 0.140000000000115 0  0 0.1200000000000564 0  1.133778471000506 0.01219539743990768 0  1.003741919047894 0.09354664821474232 0  0.9559421147150347 0.1035858189992458 0  0.9313792160389045 0.1037365237938103 0  0.9788461538460573 0.1033060829993555 0  0.9090102438250753 0.1037269304984056 0  0.8846304212778655 0.1043349840723655 0  0.8581503885465881 0.104741932962923 0  0.8286416220145676 0.1052762843984476 0  0.7982741772533339 0.1053575624517407 0  0.7708789559342691 0.1060290465840416 0  0.741870349714261 0.1078220590984258 0  0.7112469360040695 0.10685702926368 0  0.6783901541417233 0.1079959711853378 0  0.642884733623195 0.1075561996086514 0  0.6056235042367955 0.1085956039602543 0  0.5647007593786924 0.1083187281660325 0  1.1953125 0.01353164693413185 0  1.258148737344733 0.01268350115427042 0  1.320087046516829 0.01426312402966312 0  1.383495130751951 0.01432665475473204 0  1.4453125 0.01315663539200989 0  1.50886768312388 0.01395488397722681 0  0.9942307692307371 0.103330866937657 0  1.119309781943483 0.2802014914557878 0  1.572831235329714 0.01707210522554785 0  1.637611634353954 0.01209340368483431 0  1.709661292005932 0.0146870244871893 0  1.006561890631532 0.07068055446055937 0  1.784793444007901 0.01499371444634687 0  1.855459587353174 0.0
[...]
<PointData  Scalars="pressure"> 
<DataArray  type="Float64"  Name="pressure"  format="ascii">1.3255658969203307e-01  -1.8888753900295704e-01  -1.8896809872463943e-01  -1.3303693743413511e-01  -6.4082902602871144e-03  0.0000000000000000e+00  0.0000000000000000e+00  1.3257515657675004e-01  1.2663387204229073e-01  1.2080942624877487e-01  1.1508156093875695e-01  1.0944864236828772e-01  1.0390902782633891e-01  9.8461168459824749e-02  9.3103480192578414e-02  8.7834403602477767e-02  8.2652476613046477e-02  7.7556093899200679e-02  7.2543800952729012e-02  6.7614178068839584e-02  6.2765703650362881e-02  5.7996984709721623e-02  5.3306537201460710e-02  4.8692995390753994e-02  4.4154873671989218e-02  3.9690870131236816e-02  3.5299504076007182e-02  3.0979499250101530e-02  2.6729307112976025e-02  2.2547701640183132e-02  1.8433537640313202e-02  1.4384993469976076e-02  1.0400993493267891e-02  6.4800758021586642e-03  2.6210713959892592e-03  -1.1775951678811903e-03  -4.9170920085517336e-03  -8.5989272485069348e-03  -1.2224270234785131e-02  -1.5794330580185621e-02  -1.9310986943231186e-02  -2.2775262128631995e-02  -2.6188418881876164e-02  -2.9551899585054643e-02  -3.2867226749014385e-02  -3.6135507299132341e-02  -3.9358303869087119e-02  -4.2536821127036301e-02  -4.5672683519956014e-02  -4.8767128013388165e-02  -5.1821496645603649e-02  -5.4837164787230490e-02  -5.7815706633119114e-02  -6.0758250051654084e-02  -6.3666526899898657e-02  -6.6541674363737563e-02  -6.9385155118767042e-02  -7.2198829992930258e-02  -7.4983252121393229e-02  -7.7740775385605088e-02  -8.0472561579998880e-02  -8.3179054655414433e-02  -8.5862791252205514e-02  -8.8525078521605571e-02  -9.1166814726950526e-02  -9.3791185263628910e-02  -9.6397040875141685e-02  -9.8986467316394003e-02  -1.0156235735033456e-01  -1.0412513114274811e-01  -1.0667748351631909e-01  -1.0921857015631463e-01  -1.1175042309048069e-01  -1.1427667008879036e-01  -1.1679706331855365e-01  -1.1931368019918387e-01  -1.2182793446479477e-01  -1.2434162694444385e-01  -1.2685588594514574e-01  -1.2937311831503864e-01  -1.3189382631414001e-01  -1.3442016412693086e-01  -1.3695530771036116e-01  -1.3950021312703667e-01  -1.4205623599138209e-01  -1.4462679694975367e-01  -1.4721340837278030e-01  -1.4981823370601099e-01  -1.5244346150720747e-01  -1.5509585825384725e-01  -1.5777397489997588e-01  -1.6048299398695348e-01  -1.6322622881027835e-01  -1.6601084312404008e-01  -1.6883987824597110e-01  -1.7171870487824695e-01  -1.7466117595731001e-01  -1.7767037128348825e-01  -1.8075576234304197e-01  -1.8394168277867484e-01  -1.8724903067813023e-01  -1.9048725986098905e-01  -1.9532480872746927e-01  -2.0184782046934138e-01  -2.1216734773862772e-01  -2.1606938848981597e-01  -2.1644275628872786e-01  -2.1362528690936455e-01  -2.0852244460644889e-01  -2.0175339122592589e-01  -1.9402437951507651e-01  -1.8588281839969373e-01  -1.7776362688415953e-01  -1.7174983084135367e-01  -1.5586566262193313e-01  -1.7835447333870511e-01  -1.5669496101823063e-01  -1.4930949437808927e-01  -1.4392314510285398e-01  -1.4030844922390015e-01  -1.3754934851543157e-01  -1.3535657063700354e-01  -1.3372006613377677e-01  -1.3266583324099340e-01  -1.3227483357928385e-01  -1.3263978755968892e-01  -1.3353898828704605e-01  -1.3385263908410899e-01  -1.3343309889626120e-01  -1.3240708032456178e-01  -1.3084987283022267e-01  -1.2879931794567606e-01  -1.2623404651696582e-01  -1.2314025733189567e-01  -1.1957698721466695e-01  -1.1559086481438235e-01  -1.1121741809517099e-01  -1.0651729526666334e-01  -1.0154792863145562e-01  -9.6361337192656354e-02  -9.1018480511431063e-02  -8.5573347853333787e-02  -8.0077568886223804e-02  -7.4569918400538310e-02  -6.9088045157910449e-02  -6.3673022377662661e-02  -5.8328449615999006e-02  -5.3084932437023745e-02  -4.7947906115491538e-02  -4.2920927459024420e-02  -3.8006969920257844e-02  -3.3193709532906568e-02  -2.8497996188621495e-02  -2.3891475117274623e-02  -1.9382812363996884e-02  -1.4965901094629591e-02  -1.0640807424585362e-02  -2.1973782961243271e-03  1.9362362410530816e-03  5.9863159036622456e-03  9.9207877671736860e-03  1.3729852630563581e-02  1.7384263463959434e-02  2.0866983200980554e-02  2.4151532573763686e-02  2.7191577387781891e-02  2.9984992815053367e-02  3.2517188186478314e-02  3.4770240125423665e-02  3.6732598960339063e-02  3.8404780010786295e-02  3.9788921729701915e-02  4.0896283181151336e-02  4.1742824035136482e-02  4.2336973555280225e-02  4.2701843574520219e-02  4.2884571519621606e-02  4.2883230556257083e-02  4.2745034234353677e-02  4.2499723254027739e-02  4.2166392369294418e-02  4.1785927245159595e-02  4.1362721209311483e-02  4.0946457350643908e-02  4.0529335092659130e-02  4.0134523820908360e-02  3.9768011576380678e-02  3.9431811515661656e-02  3.9124350760656353e-02  3.8841948790332613e-02  3.8573446419208263e-02  3.8304520040091779e-02  3.8021568883065418e-02  3.7708206056545401e-02  3.7349129821667743e-02  3.6929406852835897e-02  3.6437334601108082e-02  3.5863732282402729e-02  3.5202995271819228e-02  3.4452452792502850e-02  3.3614067080171589e-02  3.2692803570683986e-02  3.1698163615602362e-02  3.0637259562664016e-02  2.9522215784961125e-02  2.8367849415175353e-02  2.7183357677435335e-02  2.5970378418753080e-02  2.4754277114791182e-02  2.3517643353166019e-02  2.2280457591619108e-02  2.1029173614902436e-02  1.9755543491868418e-02  1.8463429304256908e-02  1.7128896734453624e-02  1.5750751247141068e-02  1.4315175843398906e-02  1.2808318467861299e-02  1.1224779298907719e-02  9.5556129496150218e-03  7.8114682923160145e-03  5.9772409529656881e-03  4.0747764819851736e-03  2.0837256885268361e-03  0.0000000000000000e+00  0.0000000000000000e+00  0.0000000000000000e+00  0.0000000000000000e+00  0.0000000000000000e+00  0.0000000000000000e+00  0.0000000000000000e+00  0.0000000000000000e+00  0.0000000000000000e+00  2.0336061664907516e-03  3.9558028291695442e-03  5.8867340593296699e-03  7.8030171210925507e-03  9.7113730255340060e-03  1.1610206043338492e-02  1.3495766110062663e-02  1.5359037167819637e-02  1.7187074036349382e-02  1.8965027140691940e-02  2.0676440192723133e-02  2.2304474389117035e-02  2.3833275003772064e-02  2.5251530609537186e-02  2.6551578736464469e-02  2.7727199877248348e-02  2.8788344773489856e-02  2.9734778746891961e-02  3.0584466485426565e-02  3.1351500538116570e-02  3.2053526035373002e-02  3.2706599941277822e-02  3.3324722285965357e-02  3.3910599467437019e-02  3.4470922561574420e-02  3.4990722845892698e-02  3.5449347610412026e-02  3.5825197023848461e-02  3.6076881541769648e-02  3.6168418254555176e-02  3.6058990279623462e-02  3.5713232920715370e-02  3.5106732802036841e-02  3.4215377114266900e-02  3.2974152103369285e-02  3.1462024814802154e-02  2.9630034865267305e-02  2.7528119199437762e-02  2.5182077596568639e-02  2.2635510185136612e-02  1.9937789485143458e-02  1.7127748638931566e-02  1.4241855466326739e-02  1.1313385812820690e-02  8.3468020044147311e-03  5.3582449697145576e-03  2.3155671024118521e-03  -7.9854163182200286e-04  -4.0024612798670520e-03  -7.3535181277738816e-03  -1.0873787129060248e-02  -1.4609465089780067e-02  -1.8571590156066672e-02  -2.2795094808587955e-02  -2.7291215652493313e-02  -3.2058120299015835e-02  -3.7081776689695527e-02  -4.2333617506391724e-02  -4.7777396493474934e-02  -5.3375442652550835e-02  -5.9093923624170361e-02  -6.4843949849150387e-02  -7.0577425705994234e-02  -7.6264762742388401e-02  -8.1819858865846640e-02  -8.7186371578697366e-02  -9.2336430486532950e-02  -9.7223398892520310e-02  -1.0180058897029820e-01  -1.0604131999737459e-01  -1.0982751297376342e-01  -1.1320649392705572e-01  -1.1610548048704786e-01  -1.1842034597417112e-01  -1.1996926990477939e-01  -1.2087131711595511e-01  -1.2091166594826140e-01  -1.2013971937371004e-01  -1.1872905788663990e-01  -1.1632478766447069e-01  -1.1324565406794983e-01  -1.0952997137822980e-01  -1.0532838906421343e-01  -1.0067768839483129e-01  -9.5629769267140341e-02  -9.0265895172927893e-02  -8.4677377817709343e-02  -7.8897190883384524e-02  -7.2942267231766014e-02  -6.6882219783371916e-02  -6.0721242955887919e-02  -5.4494486296896766e-02  -4.8215152001986838e-02  -4.1894103153754046e-02  -3.5544077452177657e-02  -2.9178999773050999e-02  -2.2802776276178861e-02  -1.6421214316476338e-02  -1.0040354596357538e-02  -3.6654150095517305e-03  2.7010565052475177e-03  9.0587075238432180e-03  1.5403266927332376e-02  2.1734067584784911e-02  2.8049236813914764e-02  3.4348378328575221e-02  4.0630641803383112e-02  4.6894478172468626e-02  5.3140707915668231e-02  5.9367686291147394e-02  6.5575965767950259e-02  7.1764993730015353e-02  7.7934441449204431e-02  8.4084520512018535e-02  9.0214902095564917e-02  9.6325592175027439e-02  1.0241655191666754e-01  1.0848776305683402e-01  1.1453923151656024e-01  1.2057095475332986e-01  1.2658292945920235e-01  1.3257510571155651e-01  1.3257434511946767e-01  1.3257244079246561e-01  1.3256948083654155e-01  1.3256587726750838e-01  1.3256227941963161e-01  1.3255930854596898e-01  1.3255741875468519e-01  1.3255665498320299e-01  -1.2093245431608859e-01  -1.6017890704292856e-01  -2.0955067520448237e-01  -1.8272982711011906e-01  -1.9580062162716952e-01  -1.6767009492857346e-01  -1.5394628241201599e-01  -1.4091314617307757e-01  -1.2792265581420603e-01  -1.1570578181084731e-01  -1.0541200997207138e-01  -9.5059221931119348e-02  -8.4559857404471417e-02  -7.3680277142178882e-02  -6.2231793695297022e-02  -5.0468882657128088e-02  -3.7750277259979426e-02  -1.0400738200657308e-01  -8.2802777269309208e-02  -6.1257080785814259e-02  -4.0500663269142041e-02  -2.1935486998754652e-02  -4.4441297103077525e-03  -1.6740915215623398e-01  -1.0741114322971923e-01  1.1328002148047403e-02  2.4860462571805648e-02  3.5370923856962035e-02  -1.3956004594695148e-01  4.1173904791650000e-02  4.2712559459319642e-02  -2.4595475951775150e-02  4.1862083611893711e-02  -8.9201554630760127e-02  -6.7131816176680972e-02  4.0192000835752410e-02  -4.4570666436385742e-02  -1.0205123319462862e-02  -2.0941324352053148e-02  3.8920254364343689e-02  3.8844884551869105e-03  -1.2932049178979194e-01  3.7800437962930117e-02  -2.2186606017395873e-03  -1.1654045448885238e-01  2.0028109695125917e-02  3.6114161508284448e-02  1.5622374312334932e-02  3.7790460908187030e-02  2.3668395116329285e-02  3.3138700008626024e-02  3.0561516321295910e-02  -1.2015612761698796e-01  2.8799013223806406e-02  5.5651100658986326e-02  3.4595703068665634e-02  -1.1457492553345208e-01  -1.0246432110212703e-01  3.6043461462818796e-02  2.4133111154671667e-02  7.5547122451466484e-02  9.0351138837929598e-02  6.8662861897453480e-03  2.0358528704871058e-02  1.6258934478997351e-02  -8.2040324694612407e-02  3.5542000633747836e-02  3.3463582174229033e-02  -6.3548969663192997e-02  -1.9255368146433738e-01  -2.1374210938597976e-01  -4.5217005773307221e-02  3.1582825006670597e-02  1.2063047556421088e-02  -2.0476868007912430e-02  2.8176096757551700e-02  1.2057684508281472e-02  2.4493298687497552e-02  4.3763424433977988e-02  1.9794991290556924e-02  6.2370513174135479e-02  9.9240595688343494e-02  8.1154881260976780e-02  1.4389921788515204e-02  1.2752230059024788e-01  1.7901886323754453e-03  1.0686839263269525e-01  -1.3379814768628417e-01  8.8827534622943124e-03  6.7379013576833796e-03  -1.4607404061540150e-01  -1.3241455951107584e-01  -1.1975727739582703e-01  -9.9045214290616357e-02  -9.3044935018616812e-02  -3.2312317198684187e-02  -7.1558565401147944e-03  2.5630722672899838e-02  -1.2489924632376154e-02  -3.4062933891956478e-02  -5.5235069098399307e-02  -7.8504937250640769e-02  6.5189451371444426e-02  4.6504305323879669e-02  3.4626967876199746e-02  3.0062989887082808e-02  2.9318023490740652e-02  2.6616460126965807e-02  1.1141687179324290e-01  3.1101102052732754e-02  3.4804157722901345e-02  1.2085440089129724e-02  3.7088183760866658e-02  1.2749359702273136e-01  3.8373473306947188e-02  -2.9505937119947145e-03  3.9575523644223287e-02  4.1016090970750763e-02  3.5638923670274912e-03  4.2509604339156203e-02  -1.7692650868515993e-02  4.2305832306159065e-02  3.8793970390182307e-02  3.0752763350575998e-02  -3.1330352004886868e-02  1.8863661745765318e-02  1.6030843903139739e-03  -4.4115022974017551e-02  -5.6382902118469698e-02  -6.8230653570810623e-02  -7.8825133039618939e-02  -9.0064750039607108e-02  -1.0034492438648965e-01  -1.1080951626391135e-01  -1.2317231623403442e-01  -1.1304636867529243e-01  -1.3580225197215656e-01  -1.4874731578217654e-01  -1.6207182290280625e-01  -9.3736799058281473e-02  -1.7600044761579844e-01  -5.0909280561216810e-02  -7.1458999011140403e-02  -3.1815945523231297e-02  -1.3141131221162512e-02  1.2791315432205486e-01  -1.7988460357322203e-01  1.7940635733732825e-03  1.1790680754544425e-01  4.8502395596184732e-03  -1.3321715709280077e-01  1.6350321297585752e-03  1.2805163582432885e-01  -1.3305641793981843e-01  -1.3267111624226649e-01  -1.3197187036242253e-01  -1.3277175143575301e-01  -1.3206474140126517e-01  -1.3324152579602760e-01  -1.3237492784304658e-01  -1.3381903427355488e-01  -1.3278552102243388e-01  -1.3422536446169411e-01  -1.3294627328180345e-01  -1.3415489929035673e-01  -1.3258336305524410e-01  -1.3347444010063178e-01  -1.3165650482570326e-01  -1.3233683678168887e-01  -1.3017398095009994e-01  -1.3083037552183477e-01  -1.2834575122822398e-01  -1.2889372357378640e-01  -1.2588515123021507e-01  -1.3163477893989142e-01  -1.2530674026764912e-01  -1.2240005452715363e-01  -1.2944284480418361e-01  -1.3267153780291432e-01  -1.2138456548001908e-01  -1.1817952415901162e-01  -1.1737622024093272e-01  -1.1361768654400969e-01  -1.1254669757726668e-01  -1.0869954079871189e-01  -1.0729991536436582e-01  -1.0364292838292795e-01  -1.0167504005673944e-01  -9.7904778653568711e-02  -9.5601803979600997e-02  -9.1812470859595999e-02  -8.9356598120984967e-02  -8.5938766003232775e-02  -8.3096176542803615e-02  -7.9529917276269291e-02  -7.6735599951538752e-02  -7.3811402255654593e-02  -7.0579149092911464e-02  -6.7935629875609430e-02  -6.4497063833131738e-02  -6.2323575018575501e-02  -5.8593334444774763e-02  -5.6695479893599528e-02  -5.2934058278350828e-02  -1.2987756675742662e-01  -1.3325470090158001e-01  -5.1129808513229853e-02  -4.6929227505794889e-02  -4.5757398709337260e-02  -4.1643472209043193e-02  -4.0690482681040308e-02  -3.6654657953761965e-02  -3.5721085338449247e-02  -3.1619132637302351e-02  -3.0887921411840536e-02  -2.6699301395479626e-02  -1.1871856814468498e-01  -2.6214518582961446e-02  -2.1882231034798073e-02  -2.1693792063220217e-02  -1.7219944967488885e-02  -1.7384031835871838e-02  -1.2725486919516448e-02  -1.3008078946883284e-01  -1.3381971061651857e-01  -1.3501938976333128e-01  -1.3225759050074263e-02  -8.3743586731733904e-03  -1.3582905637672021e-01  -9.1685661195496596e-03  -4.2008126423489708e-03  -5.4315428781261865e-03  -2.7289174196330626e-04  -1.8688062071468266e-03  3.4343994184324309e-03  -1.0551200628563709e-01  1.2144985300449867e-03  6.8288561334538820e-03  4.3985409901995927e-03  1.0006169352024988e-02  7.2135897953941345e-03  1.2889661276396238e-02  -1.3056086729616423e-01  -8.8393098368302656e-02  9.8222219057191376e-03  1.5457930769284934e-02  -1.2989049435668718e-01  -1.3475970534509160e-01  -1.2612061378419023e-01  -7.1130590681638378e-02  1.1816758583167965e-02  1.7853574034804844e-02  1.3921152515564745e-02  1.9966305020214199e-02  1.5874264482233294e-02  2.1737286972799676e-02  -8.0092504270027499e-03  2.1593316030856475e-02  4.9806708056887878e-03  -2.2508043362465213e-02  1.7750327387635084e-02  2.3323627516199954e-02  2.7424180994868388e-02  2.8812037354056928e-02  2.4838092765589393e-02  3.0009298934409276e-02  2.6286670683283421e-02  3.1099257853236056e-02  2.7599309150763092e-02  3.1979454960092746e-02  2.8819740161582983e-02  3.2805740480085936e-02  3.0002035275898131e-02  3.3502452949581540e-02  3.1042844641687373e-02  3.4156395198711012e-02  3.2102388444047530e-02  3.4811020611395994e-02  3.3046483653676961e-02  3.5334082589195237e-02  3.3923810600621725e-02  3.5763157949968732e-02  3.4616160853573413e-02  3.6156985658394862e-02  -3.7820213010029934e-02  -5.4814510120776004e-02  3.5270928020265151e-02  3.6446623434118322e-02  3.5812099256550427e-02  3.6714327103810361e-02  -1.1081224706881806e-01  3.6217195843560292e-02  3.6862760703374291e-02  -6.7260683479680020e-02  -8.6569484234805857e-02  -1.2917584891365874e-01  -1.3218140633723408e-01  -1.3904157737648309e-01  -1.3778207818604038e-01  -1.4411154912250818e-01  -1.4266610460323223e-01  -1.4936316757643581e-01  -1.4708956975861942e-01  -1.5452452529403490e-01  -1.5105223584327052e-01  -1.5894335047696714e-01  -1.5396457309350128e-01  -1.6226687680896618e-01  -1.5610928689504461e-01  -1.6508852332487958e-01  -1.5779786175221594e-01  -1.6414096762835900e-01  -1.5635489294761631e-01  -1.6285729138276345e-01  -1.5607815693221497e-01  -1.6062105650978850e-01  -1.5393227361675346e-01  -1.5752882507873589e-01  -1.5113792588026029e-01  -1.5391062666051811e-01  -1.4794482803462686e-01  -1.4999306063087608e-01  -1.4437770430295066e-01  -1.4917645945519581e-01  -1.4197988395682706e-01  -1.3873955762383630e-01  -1.4060695987143787e-01  -1.3535841578168120e-01  -1.3675341605395119e-01  -1.3184479672233948e-01  -1.3300244468946329e-01  -1.2828354506133244e-01  -1.3031692770807904e-01  -1.2971334149721750e-01  -1.2470172839207198e-01  -1.2507345301335970e-01  -1.2082970649693489e-01  -1.2017649486380738e-01  -1.1657504853362809e-01  -1.1696541158748204e-01  -1.1293860492221115e-01  -1.1297729155157442e-01  -1.0923106626353470e-01  -1.4969696642700570e-01  -1.0901240195221845e-01  -1.0544309199986182e-01  -1.0532746219844483e-01  -1.0169018884433623e-01  -1.0166649484893729e-01  -9.8012736387619717e-02  -9.7872202642718079e-02  -9.4313017716036424e-02  -1.7046919562957463e-01  -1.5130669915741279e-01  -1.6216584597264094e-01  -1.6959308178145430e-01  -9.4013461520009334e-02  -9.0549292845898549e-02  -9.0734909315979384e-02  -8.6995152526163230e-02  -8.6739869310573384e-02  -8.3232368386707070e-02  -8.2866981909339221e-02  -7.9408804336697850e-02  -7.9736548376814750e-02  -7.5949949644431386e-02  -7.5484730291710947e-02  -7.2094625265441803e-02  -1.1585125098573809e-01  -7.1524482180003388e-02  -6.8235300028692561e-02  -1.6414588625434512e-01  -1.4329670016538973e-01  -1.0153231996119036e-01  -1.5550593046933550e-01  -6.7614171751422675e-02  -6.4257680936407977e-02  -6.5120899153249104e-02  -6.0913697924016866e-02  -6.0338300146120120e-02  -5.6848958553353229e-02  -5.7427788655644484e-02  -5.3368943482889800e-02  -5.2774403287686712e-02  -4.9308817817347715e-02  -1.3762723724763323e-01  -4.8703678665910015e-02  -4.5176054797557284e-02  -7.6058951366809499e-02  -1.1602222337380880e-01  -3.9767720073052154e-02  -1.2895862870968980e-01  -4.5800426706369517e-02  -4.1652205969984792e-02  -4.1026390275004841e-02  -3.7505289529666003e-02  3.6461061150571683e-02  3.6943203496288872e-02  3.6579769415863973e-02  3.6925373226271069e-02  3.6576861394669660e-02  3.6821200263884454e-02  -3.6711714025112072e-02  -3.3240026870080167e-02  -1.7796126722214547e-02  -3.3922399112634997e-02  -2.9686171120883283e-02  -2.9127768285759307e-02  -2.5475512385191461e-02  -1.3461850531247735e-01  -1.3226928936639290e-01  -1.0140815535121965e-01  3.6396284448029385e-02  3.6445988260997465e-02  3.6623237965077125e-02  3.2395517542681246e-02  3.7220371730927557e-02  3.7070638303607857e-02  3.6833112858150510e-02  3.6340242464693348e-02  3.6523046878307847e-02  3.5979405678053175e-02  3.6137632753954617e-02  3.5541480480984357e-02  3.5676273461739648e-02  3.5041573419217868e-02  3.5136739334775929e-02  3.4475024292937501e-02  3.4510156523172908e-02  3.3854072410733786e-02  3.3818936284881855e-02  3.3187933507420511e-02  3.3065451044920195e-02  3.2489356782902400e-02  3.2257485728990745e-02  3.1740298363670080e-02  3.1382917095320109e-02  3.0933483984597623e-02  3.0467149594455276e-02  3.0077344009400792e-02  2.9478895646053563e-02  -2.4904893920724383e-02  -2.1235228769423554e-02  -2.1544986494047687e-02  -1.7438021173326667e-02  -1.6922089857123065e-02  -1.3175905250438736e-