<?xml version="1.0"?>
<VTKFile type="UnstructuredGrid"  version="0.1"  >
<UnstructuredGrid>
<Piece  NumberOfPoints="2945" NumberOfCells="5525">
<Points>
<DataArray  type="Float64"  NumberOfComponents="3"  format="ascii">0 0.1 0  0.95 0.1 0  1 0.1 0  1 0 0  1.5 0 0  3 0 0  3 0.3 0  0 0.3 0  0.0197424558707114 0.1 0  0.03915669042224804 0.1 0  0.05824816022699029 0.1 0  0.07702223050332387 0.1 0  0.09548417327144595 0.1 0  0.1136391897583987 0.1 0  0.1314923700144587 0.1 0  0.1490487330862866 0.1 0  0.1663132263225292 0.1 0  0.1832906857273058 0.1 0  0.1999858946008978 0.1 0  0.216403545770297 0.1 0  0.2325482404045023 0.1 0  0.2484245348165176 0.1 0  0.2640368740372501 0.1 0  0.2793896589642241 0.1 0  0.2944872056237027 0.1 0  0.3093337469555254 0.1 0  0.3239334613687816 0.1 0  0.3382904528528069 0.1 0  0.3524087553122972 0.1 0  0.3662923366391824 0.1 0  0.3799451014768399 0.1 0  0.393370886920506 0.1 0  0.4065734648871676 0.1 0  0.419556546320114 0.1 0  0.4323237821343415 0.1 0  0.4448787573056132 0.1 0  0.4572250047274954 0.1 0  0.4693659926332938 0.1 0  0.4813051343276231 0.1 0  0.4930457849308193 0.1 0  0.5045912455271677 0.1 0  0.5159447600209797 0.1 0  0.5271095174127136 0.1 0  0.5380886618453393 0.1 0  0.5488852725463512 0.1 0  0.5595023868312478 0.1 0  0.5699429904313016 0.1 0  0.5802100167387366 0.1 0  0.5903063508274641 0.1 0  0.6002348329443006 0.1 0  0.6099982499579832 0.1 0  0.6195993483501782 0.1 0  0.6290408246013842 0.1 0  0.6383253354321616 0.1 0  0.6474554910757137 0.1 0  0.6564338522440513 0.1 0  0.6652629482939147 0.1 0  0.6739452579188948 0.1 0  0.6824832240165607 0.1 0  0.6908792415022103 0.1 0  0.6991356755989045 0.1 0  0.7072548438546967 0.1 0  0.7152390281534421 0.1 0  0.7230904746196039 0.1 0  0.7308113906759266 0.1 0  0.7384039435269326 0.1 0  0.7458702676581656 0.1 0  0.7532124631720397 0.1 0  0.7604325921167397 0.1 0  0.7675326856666862 0.1 0  0.7745147374421916 0.1 0  0.7813807123989068 0.1 0  0.7881325374362798 0.1 0  0.7947721131625659 0.1 0  0.8013013031866276 0.1 0  0.8077219449067021 0.1 0  0.8140358419942376 0.1 0  0.8202447685401882 0.1 0  0.8263504700910924 0.1 0  0.8323546643163114 0.1 0  0.8382590362474568 0.1 0  0.8440652473522128 0.1 0  0.8497749272799842 0.1 0  0.8553896837646281 0.1 0  0.8609110933285474 0.1 0  0.866340708855119 0.1 0  0.8716800550492284 0.1 0  0.8769306339052932 0.1 0  0.8820939206038667 0.1 0  0.8871713655604893 0.1 0  0.8921643975475726 0.1 0  0.8970744196575535 0.1 0  0.9019028106970642 0.1 0  0.9066509291259979 0.1 0  0.9113201098984042 0.1 0  0.9159116634553873 0.1 0  0.9204268818729691 0.1 0  0.9248670319440222 0.1 0  0.9292333656649013 0.1 0  0.9335271075812669 0.1 0  0.9377494640511216 0.1 0  0.941901623463222 0.1 0  0.9459847526686701 0.1 0  0.9538461538461205 0.1 0  0.9576923076922409 0.1 0  0.9615384615384381 0.1 0  0.9653846153846337 0.1 0  0.9692307692307542 0.1 0  0.9730769230768747 0.1 0  0.9769230769229952 0.1 0  0.9807692307691157 0.1 0  0.9846153846152361 0.1 0  0.9884615384614317 0.1 0  0.9923076923076356 0.1 0  0.9961538461538395 0.1 0  1 0.09591793123533533 0  1 0.09133596463859224 0  1 0.08619288104391448 0  1 0.08041996484521211 0  1 0.07394008421771697 0  1 0.06666666567302955 0  1 0.05850252932209174 0  1 0.04933859630113544 0  1 0.03905242821848202 0  1 0.02750659386753798 0  1 0.01454683679239736 0  1.015625 0 0  1.03125 0 0  1.046875 0 0  1.0625 0 0  1.078125 0 0  1.09375 0 0  1.109375 0 0  1.125 0 0  1.140625 0 0  1.15625 0 0  1.171875 0 0  1.1875 0 0  1.203125 0 0  1.21875 0 0  1.234375 0 0  1.25 0 0  1.265625 0 0  1.28125 0 0  1.296875 0 0  1.3125 0 0  1.328125 0 0  1.34375 0 0  1.359375 0 0  1.375 0 0  1.390625 0 0  1.40625 0 0  1.421875 0 0  1.4375 0 0  1.453125 0 0  1.46875 0 0  1.484375 0 0  1.515920751924515 0 0  1.531989369316721 0 0  1.54820720925872 0 0  1.564575665560501 0 0  1.581096138674279 0 0  1.597770029901263 0 0  1.614598783332311 0 0  1.631583831055205 0 0  1.64872661129721 0 0  1.666028606716533 0 0  1.683491276608443 0 0  1.701116134125304 0 0  1.718904673324128 0 0  1.736858414799339 0 0  1.754978895814663 0 0  1.773267661782904 0 0  1.791726281103402 0 0  1.810356325314689 0 0  1.8291593848892 0 0  1.848137076690385 0 0  1.867291007717254 0 0  1.886622833871288 0 0  1.90613418642363 0 0  1.925826753299799 0 0  1.945702199101513 0 0  1.96576223584749 0 0  1.986008569283268 0 0  2.006442931928877 0 0  2.02706707547783 0 0  2.047882750887917 0 0  2.06889175187935 0 0  2.090095860038271 0 0  2.111496891648636 0 0  2.133096679109554 0 0  2.154897066851056 0 0  2.176899916687499 0 0  2.199107102752146 0 0  2.22152053937028 0 0  2.244142122958061 0 0  2.266973806444078 0 0  2.290017523268154 0 0  2.313275249499252 0 0  2.336748971745516 0 0  2.360440702338606 0 0  2.384352453384031 0 0  2.408486280477412 0 0  2.432844240041185 0 0  2.457428414757088 0 0  2.482240901796653 0 0  2.507283830121838 0 0  2.532559332080812 0 0  2.558069568787417 0 0  2.583816724966441 0 0  2.60980299606584 0 0  2.636030600971886 0 0  2.662501790984011 0 0  2.689218818279327 0 0  2.716183964547616 0 0  2.743399548861297 0 0  2.77086788244719 0 0  2.798591312896326 0 0  2.826572223178268 0 0  2.854812990138617 0 0  2.883316031690714 0 0  2.912083780657189 0 0  2.941118704633482 0 0  2.970423276998917 0 0  3 0.02999999999994495 0  3 0.05999999999987042 0  3 0.089999999999783 0  3 0.119999999999701 0  3 0.149999999999619 0  3 0.179999999999692 0  3 0.2099999999997737 0  3 0.2399999999998511 0  3 0.2699999999999185 0  2.970138294777171 0.3 0  2.940375666438236 0.3 0  2.910711782853056 0.3 0  2.881146331305122 0.3 0  2.851678975030285 0.3 0  2.822309388626621 0.3 0  2.793037250095074 0.3 0  2.76386223529133 0.3 0  2.734784017903872 0.3 0  2.705802289276642 0.3 0  2.676916713794697 0.3 0  2.648126987654635 0.3 0  2.619432780406184 0.3 0  2.590833779385199 0.3 0  2.562329669847737 0.3 0  2.533920134950189 0.3 0  2.505604855727852 0.3 0  2.477383539822502 0.3 0  2.449255847639465 0.3 0  2.421221492569094 0.3 0  2.393280152486815 0.3 0  2.36543151914496 0.3 0  2.337675285481809 0.3 0  2.310011142385583 0.3 0  2.282438797441587 0.3 0  2.254957931061538 0.3 0  2.227568248063605 0.3 0  2.200269436651085 0.3 0  2.173061204949961 0.3 0  2.145943251515011 0.3 0  2.118915272469994 0.3 0  2.091976978084957 0.3 0  2.065128060700849 0.3 0  2.038368218849433 0.3 0  2.01169717777258 0.3 0  1.985114624111908 0.3 0  1.958620267850966 0.3 0  1.93221382054972 0.3 0  1.905894991850698 0.3 0  1.879663489459713 0.3 0  1.853519019126419 0.3 0  1.827461291053897 0.3 0  1.801490031354372 0.3 0  1.775604937580312 0.3 0  1.74980572560258 0.3 0  1.724092118631866 0.3 0  1.698463829173586 0.3 0  1.672920575782554 0.3 0  1.647462076974085 0.3 0  1.622088043536933 0.3 0  1.5967981978949 0.3 0  1.571592267767068 0.3 0  1.546469970305736 0.3 0  1.521431023814044 0.3 0  1.496475156230927 0.3 0  1.471602093687753 0.3 0  1.446811560490646 0.3 0  1.422103279101731 0.3 0  1.397476971708191 0.3 0  1.37293238939876 0.3 0  1.348469231419202 0.3 0  1.324087248732772 0.3 0  1.299786165921677 0.3 0  1.275565710847046 0.3 0  1.251425617644257 0.3 0  1.227365618676339 0.3 0  1.203385446174014 0.3 0  1.179484853067473 0.3 0  1.155663548773374 0.3 0  1.131921292279077 0.3 0  1.108257802159295 0.3 0  1.084672829009693 0.3 0  1.061166115303374 0.3 0  1.037737392995421 0.3 0  1.01438640299116 0.3 0  0.991112899770314 0.3 0  0.9679166155523955 0.3 0  0.944797284182564 0.3 0  0.921754678526042 0.3 0  0.8987885143602501 0.3 0  0.8758985548820624 0.3 0  0.8530845484099929 0.3 0  0.8303462351786988 0.3 0  0.8076833651172373 0.3 0  0.7850956864865304 0.3 0  0.7625829601354557 0.3 0  0.7401449314598274 0.3 0  0.717781337993959 0.3 0  0.6954919649675473 0.3 0  0.6732765357561226 0.3 0  0.6511348120768439 0.3 0  0.6290665642016573 0.3 0  0.6070715355430467 0.3 0  0.5851494825775325 0.3 0  0.5633001690203812 0.3 0  0.5415233562273221 0.3 0  0.5198187909431873 0.3 0  0.4981862401387795 0.3 0  0.4766254686134248 0.3 0  0.4551362360485234 0.3 0  0.4337182975262159 0.3 0  0.4123714223228037 0.3 0  0.3910953802377493 0.3 0  0.3698899313205595 0.3 0  0.3487548463710963 0.3 0  0.3276898864081783 0.3 0  0.3066948129116018 0.3 0  0.2857694003037476 0.3 0  0.2649134227095047 0.3 0  0.2441266417321288 0.3 0  0.2234088223399122 0.3 0  0.2027597568977288 0.3 0  0.1821792020676698 0.3 0  0.1616669305402443 0.3 0  0.1412227158799362 0.3 0  0.12084633013886 0.3 0  0.1005375673448281 0.3 0  0.08029618164595353 0.3 0  0.06012194778526769 0.3 0  0.04001466495039718 0.3 0  0.01997408913631205 0.3 0  0 0.2800000000000553 0  0 0.2600000000001105 0  0 0.2400000000001658 0  0 0.2200000000002211 0  0 0.2000000000002764 0  0 0.1800000000002244 0  0 0.1600000000001691 0  0 0.140000000000115 0  0 0.1200000000000564 0  1.133778471000506 0.01219539743990768 0  1.003741919047894 0.09354664821474232 0  0.9559421147150347 0.1035858189992458 0  0.9313792160389045 0.1037365237938103 0  0.9788461538460573 0.1033060829993555 0  0.9090102438250753 0.1037269304984056 0  0.8846304212778655 0.1043349840723655 0  0.8581503885465881 0.104741932962923 0  0.8286416220145676 0.1052762843984476 0  0.7982741772533339 0.1053575624517407 0  0.7708789559342691 0.1060290465840416 0  0.741870349714261 0.1078220590984258 0  0.7112469360040695 0.10685702926368 0  0.6783901541417233 0.1079959711853378 0  0.642884733623195 0.1075561996086514 0  0.6056235042367955 0.1085956039602543 0  0.5647007593786924 0.1083187281660325 0  1.1953125 0.01353164693413185 0  1.258148737344733 0.01268350115427042 0  1.320087046516829 0.01426312402966312 0  1.383495130751951 0.01432665475473204 0  1.4453125 0.01315663539200989 0  1.50886768312388 0.01395488397722681 0  0.9942307692307371 0.103330866937657 0  1.119309781943483 0.2802014914557878 0  1.572831235329714 0.01707210522554785 0  1.637611634353954 0.01209340368483431 0  1.709661292005932 0.0146870244871893 0  1.006561890631532 0.07068055446055937 0  1.784793444007901 0.01499371444634687 0  1.855459587353174 0.0
[...]
<PointData  Scalars="pressure"> 
<DataArray  type="Float64"  Name="pressure"  format="ascii">1.9214070850214718e-01  -1.3131311194721082e-01  -1.1436894048514946e-01  -5.6964243004938110e-02  3.8538428194331405e-02  0.0000000000000000e+00  0.0000000000000000e+00  1.9215933806484872e-01  1.8621799010874293e-01  1.8039353722640220e-01  1.7466565568278117e-01  1.6903270832238565e-01  1.6349304766120989e-01  1.5804512350688951e-01  1.5268734886945892e-01  1.4741815256660704e-01  1.4223608147209491e-01  1.3713951252293843e-01  1.3212698216044499e-01  1.2719707714138892e-01  1.2234825657770816e-01  1.1757912421038388e-01  1.1288817951193017e-01  1.0827405028456856e-01  1.0373522897297816e-01  9.9270408817830919e-02  9.4878080784703306e-02  9.0556963336952526e-02  8.6305464543188173e-02  8.2122345231334687e-02  7.8006481578339365e-02  7.3955949527027484e-02  6.9969687899301899e-02  6.6046176368104309e-02  6.2184241011299719e-02  5.8382276511775813e-02  5.4639005972697399e-02  5.0952979182664636e-02  4.7322881012128164e-02  4.3747595013309361e-02  4.0225037669061992e-02  3.6754216988906879e-02  3.3333809828443722e-02  2.9962326408487016e-02  2.6638164764002478e-02  2.3360176415852679e-02  2.0126732107434025e-02  1.6936570161318804e-02  1.3787979477689408e-02  1.0679678745350935e-02  7.6102547368516590e-03  4.5782791216851942e-03  1.5820837978124662e-03  -1.3794947677372052e-03  -4.3083039075281935e-03  -7.2055065920465667e-03  -1.0072650866444606e-02  -1.2911698729699668e-02  -1.5723208467898125e-02  -1.8509659826058011e-02  -2.1272314454328138e-02  -2.4011500757265936e-02  -2.6729986563517921e-02  -2.9429136107158763e-02  -3.2109819206508725e-02  -3.4775532156064361e-02  -3.7424795705720944e-02  -4.0059941859591851e-02  -4.2684052254926955e-02  -4.5297420684580328e-02  -4.7903018024024330e-02  -5.0499672555839065e-02  -5.3089740526070753e-02  -5.5676983910001400e-02  -5.8261053080451410e-02  -6.0844118044190591e-02  -6.3427634856416462e-02  -6.6013577418607292e-02  -6.8602991358452006e-02  -7.1198437603383430e-02  -7.3800277533987990e-02  -7.6410968969263610e-02  -7.9033914459168908e-02  -8.1669851122494128e-02  -8.4320403015361839e-02  -8.6989284238887993e-02  -8.9677692439542309e-02  -9.2388372684266348e-02  -9.5123852020839214e-02  -9.7891367049809691e-02  -1.0068933234158352e-01  -1.0352395666699185e-01  -1.0639787248500225e-01  -1.0932636190260904e-01  -1.1229628114507226e-01  -1.1525947109987666e-01  -1.1906913986834075e-01  -1.1799555022643483e-01  -1.4194359987988550e-01  -1.0627815684063685e-01  -1.3556394256084062e-01  -1.3367000705981522e-01  -1.4000748681825481e-01  -1.4704911136885709e-01  -1.5859175669572340e-01  -1.6202989590501271e-01  -1.6095094401706916e-01  -1.5591399405148232e-01  -1.4815488121337342e-01  -1.3851609787303684e-01  -1.2793320407900644e-01  -1.1712036626286365e-01  -1.0664616610674778e-01  -9.8832355496336760e-02  -8.0889872033474350e-02  -1.0686136221525122e-01  -8.3416688554192597e-02  -7.5582663355686475e-02  -6.9719236813485574e-02  -6.5721210873149041e-02  -6.2635097475865514e-02  -6.0173182788628168e-02  -5.8312939954487206e-02  -5.7051481561811321e-02  -5.6447056681761608e-02  -5.6612699860313309e-02  -5.7404728171205462e-02  -5.7442030246088974e-02  -5.6619132143153519e-02  -5.5087078507421575e-02  -5.2968519144847979e-02  -5.0397579527393252e-02  -4.7471499419940132e-02  -4.4269379908396495e-02  -4.0950183902314488e-02  -3.7652337496607013e-02  -3.4491745273156162e-02  -3.1577174525957347e-02  -2.8996449656914100e-02  -2.6813331882015828e-02  -2.5064758728774152e-02  -2.3726977889923298e-02  -2.2749030603245221e-02  -2.2070397637369687e-02  -2.1560684305606145e-02  -2.0994197697598343e-02  -2.0376243078523142e-02  -1.9258069482090821e-02  -1.7630444762808600e-02  -1.5222279743967858e-02  -1.1959887131064025e-02  -7.5246166412751888e-03  -2.0901996262857646e-03  4.4534016115517008e-03  1.1964133226068175e-02  2.0301622833389047e-02  2.9247629469852585e-02  4.8073469695240068e-02  5.7441240005199928e-02  6.6378488782387182e-02  7.4529873406471964e-02  8.1808931642293595e-02  8.7907681543058225e-02  9.2799401080641594e-02  9.6352532752032274e-02  9.8538830994578469e-02  9.9465057061504186e-02  9.9221818868564224e-02  9.7920048215956346e-02  9.5680232508581944e-02  9.2687242309579310e-02  8.9102187038897135e-02  8.5123301275857974e-02  8.0954859162569143e-02  7.6865585285754892e-02  7.2912097098404877e-02  6.9538668072564827e-02  6.6789708449257620e-02  6.4877646591266838e-02  6.3949116772428038e-02  6.4004527057186678e-02  6.5051551430080234e-02  6.6928302488390989e-02  6.9416529387917286e-02  7.2341457128483277e-02  7.5364773850680897e-02  7.8188698874842935e-02  8.0579156028138116e-02  8.2305236550322333e-02  8.3217234499516526e-02  8.3232679406342339e-02  8.2319403290624024e-02  8.0522051264769953e-02  7.7902448101188460e-02  7.4569923361590934e-02  7.0615104953378249e-02  6.6167750465364647e-02  6.1356876899549363e-02  5.6340608153532777e-02  5.1305746165181909e-02  4.6499989146934713e-02  4.2196996451837152e-02  3.8700994369352419e-02  3.6268477291259080e-02  3.5066261443698614e-02  3.5114279755364297e-02  3.6318684560430893e-02  3.8408617121964778e-02  4.0813322723923087e-02  4.3303846273815311e-02  4.5212752088450360e-02  4.6221633560216309e-02  4.6130177828470564e-02  4.4776989930261815e-02  4.2126165040062259e-02  3.8413647878201285e-02  3.3783191078567879e-02  2.8480457708280255e-02  2.2688200811483070e-02  1.6883509514162922e-02  1.1321360768854477e-02  6.5463897109444003e-03  2.8378545704741921e-03  6.4168746055474066e-04  0.0000000000000000e+00  0.0000000000000000e+00  0.0000000000000000e+00  0.0000000000000000e+00  0.0000000000000000e+00  0.0000000000000000e+00  0.0000000000000000e+00  0.0000000000000000e+00  0.0000000000000000e+00  5.7417012089694183e-03  9.5308835679642281e-03  1.1687287245851259e-02  1.2333045192700051e-02  1.1836827816018599e-02  1.0837452284645756e-02  1.0004810408286964e-02  1.0001113236064244e-02  1.1354931347366069e-02  1.4351271519538406e-02  1.8993895887209563e-02  2.5022889768455070e-02  3.1996925759105496e-02  3.9415265517232061e-02  4.6784336733461572e-02  5.3686367332497764e-02  5.9786844877175851e-02  6.4761281810181634e-02  6.8355067191645080e-02  7.0328320604620465e-02  7.0523907874437020e-02  6.8915711557668582e-02  6.5676821418816089e-02  6.1212917972582340e-02  5.6103234511582757e-02  5.1129831469355388e-02  4.7082400832359629e-02  4.4587658609925800e-02  4.4088929326628411e-02  4.5652429801945248e-02  4.9056408163688406e-02  5.3770764796417778e-02  5.9370559569998677e-02  6.5025138940030383e-02  7.0321919643130545e-02  7.5011818555201601e-02  7.8546861191620646e-02  8.0814601117931414e-02  8.1539964310351265e-02  8.0696939887684560e-02  7.8140014983529821e-02  7.3841913705046947e-02  6.8052570634432888e-02  6.1036296635374764e-02  5.3247367747658612e-02  4.5265591229865704e-02  3.7691310176917944e-02  3.1082453785141934e-02  2.5766003492605511e-02  2.1891015566324681e-02  1.9441831486134552e-02  1.8084319015997580e-02  1.7579679154007048e-02  1.7298264065443710e-02  1.6994648130363676e-02  1.6354418545044852e-02  1.5206403283749562e-02  1.3433924130601196e-02  1.1011343696988255e-02  7.9265531620163320e-03  4.2144344587188827e-03  -6.8369058280370786e-05  -4.7841058685682393e-03  -9.8803689060892978e-03  -1.5209459722665578e-02  -2.0631352330553937e-02  -2.6035034488847631e-02  -3.1296317591656297e-02  -3.6303405328557872e-02  -4.0984613793590530e-02  -4.5185832064314278e-02  -4.8953685136690329e-02  -5.2198788843724128e-02  -5.4838283021556918e-02  -5.6702968199941459e-02  -5.7923022707915744e-02  -5.8281065645697197e-02  -5.7838681718606705e-02  -5.6768387423151087e-02  -5.4684326958370305e-02  -5.1904507784062734e-02  -4.8459706761249527e-02  -4.4504780008033130e-02  -4.0070354092457294e-02  -3.5205608613270670e-02  -2.9994253998804000e-02  -2.4535798338354221e-02  -1.8863813230335154e-02  -1.2995293970348456e-02  -7.0077145324161641e-03  -9.0451104307561988e-04  5.2746796242657008e-03  1.1515627545326987e-02  1.7806188710623418e-02  2.4132184135774365e-02  3.0477430876283979e-02  3.6838305294706428e-02  4.3207687577226060e-02  4.9579007732471474e-02  5.5946194356564553e-02  6.2306503693183107e-02  6.8659481266304959e-02  7.5000271399940158e-02  8.1328177346962155e-02  8.7640995727145177e-02  9.3938378024626873e-02  1.0021926730763256e-01  1.0648199717927140e-01  1.1272741328628345e-01  1.1895372581312537e-01  1.2516150968570089e-01  1.3135015884525625e-01  1.3751930924959108e-01  1.4366917644028657e-01  1.4979939658346633e-01  1.5590997026608872e-01  1.6200084846668211e-01  1.6807200506854569e-01  1.7412344003596733e-01  1.8015514518817330e-01  1.8616711198178101e-01  1.9215928628642959e-01  1.9215851955781635e-01  1.9215660671659424e-01  1.9215363855515238e-01  1.9215002758828359e-01  1.9214642235511167e-01  1.9214344318854412e-01  1.9214154497721642e-01  1.9214077491560350e-01  -4.2323463338110177e-02  -8.6885489388514481e-02  -1.5611183835257580e-01  -1.2514541383929659e-01  -1.3140387220509389e-01  -1.1110161516510664e-01  -9.6713689877697614e-02  -8.3150012695535291e-02  -6.9714022090016273e-02  -5.7150107231870827e-02  -4.6617575222771837e-02  -3.6070458653946480e-02  -2.5413939354632632e-02  -1.4410482612088066e-02  -2.8652861452067636e-03  8.9682844426581011e-03  2.1739375361191641e-02  -3.0197803756466687e-02  -2.2975944586953012e-02  -2.0402962783027154e-02  -1.3492748797336874e-02  7.6119269003776836e-03  4.2925603355934497e-02  -9.3722292514395608e-02  -4.2688773690027743e-02  7.7293577080717726e-02  9.6676841328849752e-02  9.6786337630123842e-02  -6.4811443313741196e-02  8.2670858293015848e-02  6.8459639528934718e-02  3.4929689470934687e-02  6.4081196051267011e-02  -2.2861297299847948e-02  -1.6965550070005421e-03  7.3935830915668146e-02  1.2939942175767365e-02  4.9344459411193482e-02  1.7879868887202510e-02  8.2570367588824009e-02  6.3448515331977220e-02  -5.1329424039911288e-02  7.9399988872646821e-02  2.7992530792958124e-02  -5.2804104606974413e-02  7.9601693870563733e-02  6.4108353518276331e-02  7.0841552356462251e-02  9.7369589681088803e-02  8.1274092769048720e-02  4.4492925879401866e-02  7.6929224833413579e-02  -5.7594717084387556e-02  3.4708525864183548e-02  1.1523300677101476e-01  6.2395688939424140e-02  -5.3031154217430675e-02  -4.1749546557283537e-02  4.7104368900813522e-02  4.1586278067650653e-02  1.3513045975879015e-01  1.4993495872905563e-01  4.8753490023989890e-02  4.6248750102995090e-02  4.0217068344399989e-02  -2.1941241608166955e-02  4.5156900619259935e-02  6.3254313833733491e-02  -3.7038952884285345e-03  -1.3693700926000399e-01  -1.5746670104461913e-01  1.4500101096201623e-02  7.0529986211752965e-02  2.6200208218946270e-02  3.9159838457746808e-02  5.7198748121701823e-02  7.1656555034581612e-02  3.6090549030124659e-02  1.0335144149379948e-01  1.6445708935823124e-02  1.2195627937342063e-01  1.5882492208083532e-01  1.4073961940799956e-01  9.3273766932487120e-03  1.8710644752561417e-01  3.5501412648166540e-03  1.6645244391228189e-01  -5.8221305338655036e-02  1.1705471144707673e-02  8.6934750704839407e-03  -7.1990054808254864e-02  -5.5520944644062042e-02  -5.6581324534272656e-02  -3.3467123387079058e-02  -3.2682091269299794e-02  2.7354044873935539e-02  5.2459755217721935e-02  8.5223296734478940e-02  1.8967169966367804e-02  1.6487372849413009e-02  7.0942532906540746e-03  -1.2011208658134894e-02  1.2477219328282776e-01  1.0608503528947293e-01  5.2811382410150709e-02  6.6913597947077630e-02  8.8894970175041305e-02  3.6653605350738659e-02  1.7100109025219731e-01  3.7221332024389271e-02  5.4133461373891037e-02  7.1655032428281862e-02  7.2879148502595886e-02  1.8707775844204846e-01  8.2823211302274741e-02  5.6607322724912722e-02  7.8728258944235588e-02  6.7953326353845142e-02  6.1023054396388346e-02  6.4290196180152262e-02  4.1845764843587194e-02  7.4977356219652291e-02  9.0971076799294240e-02  9.9146955474496534e-02  2.8178566759740276e-02  8.9967020677993934e-02  -2.5725555075969720e-04  1.5351006193787107e-02  3.0219632110902108e-03  -8.9108798975184554e-03  -1.9609477568169550e-02  -3.0995908990540961e-02  -4.1448601671611740e-02  -5.2133965433324471e-02  -6.4819951555452504e-02  -3.5828513846865973e-02  -7.7853463454294530e-02  -9.1295066834891900e-02  -1.0521991568398981e-01  -2.5782175369959803e-02  -1.2057994819328348e-01  -1.8382370503318205e-02  -2.1467013624910967e-02  -5.9388866636877124e-03  2.3982228222657859e-02  1.8749728536317195e-01  -1.1006493774188719e-01  6.1342958469613844e-03  1.7749091378925055e-01  1.0798616795032523e-02  -5.7010941955712359e-02  -2.3846973327581395e-04  1.8763581343201252e-01  -5.6567079569469395e-02  -5.6145699237325757e-02  -5.5052550592502393e-02  -5.6177887676965972e-02  -5.5035495871217290e-02  -5.6512729771454009e-02  -5.5118865731074079e-02  -5.6894985436891116e-02  -5.5225015615257424e-02  -5.7033680586104002e-02  -5.4989806577319729e-02  -5.6619115333207112e-02  -5.4117237632396613e-02  -5.5463959911815859e-02  -5.2557549393179984e-02  -5.3716809457563082e-02  -5.0355969985233236e-02  -5.1605957186698484e-02  -4.8001954211678653e-02  -4.9502607948390377e-02  -4.5604800698251527e-02  -5.3407179029302185e-02  -4.3900676521549734e-02  -4.1454512692502408e-02  -5.1442047839110883e-02  -5.5766666692304727e-02  -3.9382536278941345e-02  -3.7067345346070098e-02  -3.5240003631457108e-02  -3.2902682780107717e-02  -3.0927219515780899e-02  -2.9038185580989920e-02  -2.7054791226044938e-02  -2.5709156645072607e-02  -2.3681940463422101e-02  -2.2906570325725989e-02  -2.1025890761461455e-02  -2.0372002566914123e-02  -1.9154367385239075e-02  -1.8748089025361105e-02  -1.8131167083068507e-02  -1.7572439030206520e-02  -1.7782897467815213e-02  -1.7021109145174535e-02  -1.7936484956090598e-02  -1.6584236469933827e-02  -1.8254582684676449e-02  -1.5936881575909317e-02  -1.8334235095827437e-02  -1.4868431775955496e-02  -1.7552403024979783e-02  -5.3635731756457770e-02  -5.8045123903382317e-02  -1.3072900286518144e-02  -1.6365241503840080e-02  -1.0498996819657314e-02  -1.2965583972066031e-02  -6.6436165429202207e-03  -8.7224317479629981e-03  -1.8471332307127390e-03  -2.9283792959458985e-03  3.8452202440825106e-03  4.1630467409076739e-03  -3.9387427761409584e-02  1.0085894337432075e-02  1.2189258172870554e-02  1.6610475206260449e-02  2.0608384656331576e-02  2.2951859002716703e-02  2.8951235156900346e-02  -5.5854566559287742e-02  -6.0519537580437315e-02  -5.8063641182958758e-02  2.8832097226779436e-02  3.6827237866153065e-02  -6.0331808664147633e-02  3.4200472925321364e-02  4.3891734144851008e-02  3.8608738905992972e-02  4.9859366015285816e-02  4.2374838189844860e-02  5.4727203444957045e-02  -2.8206968349337908e-02  4.4841798815868299e-02  5.8426512076328492e-02  4.7844994021112232e-02  6.1424792605825083e-02  5.0361961534743489e-02  6.3693319362336465e-02  -5.1073834627296776e-02  -1.9727610309692039e-02  5.2942065080605838e-02  6.5425844502735947e-02  -5.7800545674890673e-02  -6.3411279001155840e-02  -5.3349154299659543e-02  -1.4931119716033836e-02  5.4744942650283290e-02  6.7013635425080945e-02  5.7649508433794745e-02  6.8351676636764558e-02  6.0831238656678908e-02  6.9433753922330310e-02  3.7020785012568308e-02  7.7665931533053914e-02  6.2301633883100865e-02  6.7017769797863194e-03  6.4235688656309367e-02  7.0502858061006382e-02  7.5667823893494357e-02  7.4486734594931200e-02  7.1581781330318020e-02  7.3297601347565675e-02  7.2579713398266965e-02  7.2190422971793830e-02  7.3432974393545125e-02  7.1301569033516421e-02  7.4164658817359050e-02  7.0740130268385271e-02  7.4695886707150633e-02  7.0465851951115460e-02  7.5143589413100925e-02  7.0528492346675534e-02  7.5154865275150098e-02  7.0494122546880672e-02  7.4780183062250885e-02  7.0732696372017193e-02  7.3926552670625673e-02  7.0744535387366497e-02  7.2490819091131184e-02  7.0398401125939314e-02  -1.3862365630920083e-02  -9.6168733416461174e-03  7.0248511291860369e-02  6.9507695394370697e-02  6.7362307075718539e-02  6.7975037992090689e-02  -2.9257502092019716e-02  6.3916469825464492e-02  6.5991517847039285e-02  -1.8926669448541072e-02  -1.8449352749510321e-02  -5.9240061506831747e-02  -6.3401998293634104e-02  -6.9136775288949792e-02  -6.9664869719018085e-02  -7.5564498594865373e-02  -7.5680688637742549e-02  -8.2269332969909917e-02  -8.1380619388558312e-02  -8.9067234774795695e-02  -8.6618031862626663e-02  -9.5138609533208060e-02  -9.0785090911355004e-02  -1.0002799650114441e-01  -9.4139016867468339e-02  -1.0441027814698840e-01  -9.6949012471919269e-02  -1.0437729834156745e-01  -9.6234750254467760e-02  -1.0375462493504012e-01  -9.6653644295270208e-02  -1.0200623469731186e-01  -9.4922016959789954e-02  -9.9207768445934194e-02  -9.2396455577945527e-02  -9.5744903084082900e-02  -8.9362572977429541e-02  -9.1894457258345955e-02  -8.5888441650129987e-02  -8.9452715595858670e-02  -8.2983944015956532e-02  -7.9856674332065058e-02  -8.2156579137858218e-02  -7.6544430708594832e-02  -7.8295995972193291e-02  -7.3060859960482047e-02  -7.4507956537281470e-02  -6.9503366533225960e-02  -7.1166388978259859e-02  -7.1221960087324954e-02  -6.5909807308306270e-02  -6.6490229100482592e-02  -6.2007710847157650e-02  -6.1110286126925803e-02  -5.7512116829508138e-02  -5.8108725103615450e-02  -5.3870485527046673e-02  -5.4071779567080439e-02  -5.0144833313361580e-02  -8.0951700567622492e-02  -5.0058100738021534e-02  -4.6337498378158051e-02  -4.6051835226320274e-02  -4.2420613413127500e-02  -4.2542863400105956e-02  -3.8743106552440801e-02  -3.8726602419115332e-02  -3.5037178467207802e-02  -1.0944168415726821e-01  -8.9575740627690678e-02  -9.7317662071614630e-02  -1.1086207554702759e-01  -3.4858362167558062e-02  -3.1266190169806744e-02  -3.1331181940255130e-02  -2.7597987956878595e-02  -2.7444203319936432e-02  -2.3837903024553284e-02  -2.3556220512712559e-02  -2.0012180790969100e-02  -2.0248054421121930e-02  -1.6474868060015357e-02  -1.6085313700621058e-02  -1.2626522206360253e-02  -5.6524631444966889e-02  -1.2119036750007204e-02  -8.7700305664946340e-03  -1.0625121294007862e-01  -7.8435414183646746e-02  -4.2076717587115391e-02  -9.7797228001354986e-02  -8.2005489812063785e-03  -4.7911750470889195e-03  -5.5989969337415461e-03  -1.3970254150445665e-03  -8.7037268713088670e-04  2.6626573854443124e-03  2.1345283380402604e-03  6.1820983668695153e-03  6.7346954952110820e-03  1.0234407570422500e-02  -7.9424132913883172e-02  1.0805277768041943e-02  1.4362359100960646e-02  -1.6492623951602458e-02  -5.7272935305012436e-02  5.9566543953759132e-04  -7.0596565579301135e-02  1.3772897984939757e-02  1.7912304516742621e-02  1.8509218557923854e-02  2.2053052859721787e-02  6.0050157273964122e-02  6.3504389294307476e-02  5.6235815351020998e-02  6.0979878012237448e-02  5.2871440187760924e-02  5.8607141854605881e-02  2.2822981557243001e-02  2.6314254613927866e-02  2.3266596688756216e-02  2.5655475828145442e-02  2.9885326318069960e-02  3.0424427512700924e-02  3.4091617320595825e-02  -5.8225162764901028e-02  -6.5243992840138917e-02  -4.2395691194387283e-02  6.6612899152422744e-02  5.0288279128504865e-02  5.6763326672102349e-02  7.9235225870489021e-02  6.9194160612324210e-02  6.5940904810778786e-02  6.4177864158246584e-02  5.5559701716654142e-02  6.2604635364723951e-02  5.5180639182082457e-02  6.1207773659420393e-02  5.5389642541399955e-02  5.9884387195434242e-02  5.6096011147997393e-02  5.8621526181337757e-02  5.6971619786847415e-02  5.7266304587213129e-02  5.7859027604488703e-02  5.5841185717035710e-02  5.8526959172784415e-02  5.4312386481781667e-02  5.8742115768542595e-02  5.2738099420744519e-02  5.8367506709652774e-02  5.1155176439190791e-02  5.7654709517685226e-02  4.9757661317165559e-02  5.6537879123947907e-02  4.8458891416797684e-02  3.4646918087257450e-02  3.8329371975157192e-02  3.8033761778595430e-02  4.2136845881509115e-02  4.2641018458792541e-02  4.6396473968583596e-02  5.4839769621902096e-02  4.7259670497971834e-02  5.2128192017872041e-02  4.5926632275393613e-02  4.9734762