<?xml version="1.0"?>
<VTKFile type="UnstructuredGrid"  version="0.1"  >
<UnstructuredGrid>
<Piece  NumberOfPoints="2945" NumberOfCells="5525">
<Points>
<DataArray  type="Float64"  NumberOfComponents="3"  format="ascii">0 0.1 0  0.95 0.1 0  1 0.1 0  1 0 0  1.5 0 0  3 0 0  3 0.3 0  0 0.3 0  0.0197424558707114 0.1 0  0.03915669042224804 0.1 0  0.05824816022699029 0.1 0  0.07702223050332387 0.1 0  0.09548417327144595 0.1 0  0.1136391897583987 0.1 0  0.1314923700144587 0.1 0  0.1490487330862866 0.1 0  0.1663132263225292 0.1 0  0.1832906857273058 0.1 0  0.1999858946008978 0.1 0  0.216403545770297 0.1 0  0.2325482404045023 0.1 0  0.2484245348165176 0.1 0  0.2640368740372501 0.1 0  0.2793896589642241 0.1 0  0.2944872056237027 0.1 0  0.3093337469555254 0.1 0  0.3239334613687816 0.1 0  0.3382904528528069 0.1 0  0.3524087553122972 0.1 0  0.3662923366391824 0.1 0  0.3799451014768399 0.1 0  0.393370886920506 0.1 0  0.4065734648871676 0.1 0  0.419556546320114 0.1 0  0.4323237821343415 0.1 0  0.4448787573056132 0.1 0  0.4572250047274954 0.1 0  0.4693659926332938 0.1 0  0.4813051343276231 0.1 0  0.4930457849308193 0.1 0  0.5045912455271677 0.1 0  0.5159447600209797 0.1 0  0.5271095174127136 0.1 0  0.5380886618453393 0.1 0  0.5488852725463512 0.1 0  0.5595023868312478 0.1 0  0.5699429904313016 0.1 0  0.5802100167387366 0.1 0  0.5903063508274641 0.1 0  0.6002348329443006 0.1 0  0.6099982499579832 0.1 0  0.6195993483501782 0.1 0  0.6290408246013842 0.1 0  0.6383253354321616 0.1 0  0.6474554910757137 0.1 0  0.6564338522440513 0.1 0  0.6652629482939147 0.1 0  0.6739452579188948 0.1 0  0.6824832240165607 0.1 0  0.6908792415022103 0.1 0  0.6991356755989045 0.1 0  0.7072548438546967 0.1 0  0.7152390281534421 0.1 0  0.7230904746196039 0.1 0  0.7308113906759266 0.1 0  0.7384039435269326 0.1 0  0.7458702676581656 0.1 0  0.7532124631720397 0.1 0  0.7604325921167397 0.1 0  0.7675326856666862 0.1 0  0.7745147374421916 0.1 0  0.7813807123989068 0.1 0  0.7881325374362798 0.1 0  0.7947721131625659 0.1 0  0.8013013031866276 0.1 0  0.8077219449067021 0.1 0  0.8140358419942376 0.1 0  0.8202447685401882 0.1 0  0.8263504700910924 0.1 0  0.8323546643163114 0.1 0  0.8382590362474568 0.1 0  0.8440652473522128 0.1 0  0.8497749272799842 0.1 0  0.8553896837646281 0.1 0  0.8609110933285474 0.1 0  0.866340708855119 0.1 0  0.8716800550492284 0.1 0  0.8769306339052932 0.1 0  0.8820939206038667 0.1 0  0.8871713655604893 0.1 0  0.8921643975475726 0.1 0  0.8970744196575535 0.1 0  0.9019028106970642 0.1 0  0.9066509291259979 0.1 0  0.9113201098984042 0.1 0  0.9159116634553873 0.1 0  0.9204268818729691 0.1 0  0.9248670319440222 0.1 0  0.9292333656649013 0.1 0  0.9335271075812669 0.1 0  0.9377494640511216 0.1 0  0.941901623463222 0.1 0  0.9459847526686701 0.1 0  0.9538461538461205 0.1 0  0.9576923076922409 0.1 0  0.9615384615384381 0.1 0  0.9653846153846337 0.1 0  0.9692307692307542 0.1 0  0.9730769230768747 0.1 0  0.9769230769229952 0.1 0  0.9807692307691157 0.1 0  0.9846153846152361 0.1 0  0.9884615384614317 0.1 0  0.9923076923076356 0.1 0  0.9961538461538395 0.1 0  1 0.09591793123533533 0  1 0.09133596463859224 0  1 0.08619288104391448 0  1 0.08041996484521211 0  1 0.07394008421771697 0  1 0.06666666567302955 0  1 0.05850252932209174 0  1 0.04933859630113544 0  1 0.03905242821848202 0  1 0.02750659386753798 0  1 0.01454683679239736 0  1.015625 0 0  1.03125 0 0  1.046875 0 0  1.0625 0 0  1.078125 0 0  1.09375 0 0  1.109375 0 0  1.125 0 0  1.140625 0 0  1.15625 0 0  1.171875 0 0  1.1875 0 0  1.203125 0 0  1.21875 0 0  1.234375 0 0  1.25 0 0  1.265625 0 0  1.28125 0 0  1.296875 0 0  1.3125 0 0  1.328125 0 0  1.34375 0 0  1.359375 0 0  1.375 0 0  1.390625 0 0  1.40625 0 0  1.421875 0 0  1.4375 0 0  1.453125 0 0  1.46875 0 0  1.484375 0 0  1.515920751924515 0 0  1.531989369316721 0 0  1.54820720925872 0 0  1.564575665560501 0 0  1.581096138674279 0 0  1.597770029901263 0 0  1.614598783332311 0 0  1.631583831055205 0 0  1.64872661129721 0 0  1.666028606716533 0 0  1.683491276608443 0 0  1.701116134125304 0 0  1.718904673324128 0 0  1.736858414799339 0 0  1.754978895814663 0 0  1.773267661782904 0 0  1.791726281103402 0 0  1.810356325314689 0 0  1.8291593848892 0 0  1.848137076690385 0 0  1.867291007717254 0 0  1.886622833871288 0 0  1.90613418642363 0 0  1.925826753299799 0 0  1.945702199101513 0 0  1.96576223584749 0 0  1.986008569283268 0 0  2.006442931928877 0 0  2.02706707547783 0 0  2.047882750887917 0 0  2.06889175187935 0 0  2.090095860038271 0 0  2.111496891648636 0 0  2.133096679109554 0 0  2.154897066851056 0 0  2.176899916687499 0 0  2.199107102752146 0 0  2.22152053937028 0 0  2.244142122958061 0 0  2.266973806444078 0 0  2.290017523268154 0 0  2.313275249499252 0 0  2.336748971745516 0 0  2.360440702338606 0 0  2.384352453384031 0 0  2.408486280477412 0 0  2.432844240041185 0 0  2.457428414757088 0 0  2.482240901796653 0 0  2.507283830121838 0 0  2.532559332080812 0 0  2.558069568787417 0 0  2.583816724966441 0 0  2.60980299606584 0 0  2.636030600971886 0 0  2.662501790984011 0 0  2.689218818279327 0 0  2.716183964547616 0 0  2.743399548861297 0 0  2.77086788244719 0 0  2.798591312896326 0 0  2.826572223178268 0 0  2.854812990138617 0 0  2.883316031690714 0 0  2.912083780657189 0 0  2.941118704633482 0 0  2.970423276998917 0 0  3 0.02999999999994495 0  3 0.05999999999987042 0  3 0.089999999999783 0  3 0.119999999999701 0  3 0.149999999999619 0  3 0.179999999999692 0  3 0.2099999999997737 0  3 0.2399999999998511 0  3 0.2699999999999185 0  2.970138294777171 0.3 0  2.940375666438236 0.3 0  2.910711782853056 0.3 0  2.881146331305122 0.3 0  2.851678975030285 0.3 0  2.822309388626621 0.3 0  2.793037250095074 0.3 0  2.76386223529133 0.3 0  2.734784017903872 0.3 0  2.705802289276642 0.3 0  2.676916713794697 0.3 0  2.648126987654635 0.3 0  2.619432780406184 0.3 0  2.590833779385199 0.3 0  2.562329669847737 0.3 0  2.533920134950189 0.3 0  2.505604855727852 0.3 0  2.477383539822502 0.3 0  2.449255847639465 0.3 0  2.421221492569094 0.3 0  2.393280152486815 0.3 0  2.36543151914496 0.3 0  2.337675285481809 0.3 0  2.310011142385583 0.3 0  2.282438797441587 0.3 0  2.254957931061538 0.3 0  2.227568248063605 0.3 0  2.200269436651085 0.3 0  2.173061204949961 0.3 0  2.145943251515011 0.3 0  2.118915272469994 0.3 0  2.091976978084957 0.3 0  2.065128060700849 0.3 0  2.038368218849433 0.3 0  2.01169717777258 0.3 0  1.985114624111908 0.3 0  1.958620267850966 0.3 0  1.93221382054972 0.3 0  1.905894991850698 0.3 0  1.879663489459713 0.3 0  1.853519019126419 0.3 0  1.827461291053897 0.3 0  1.801490031354372 0.3 0  1.775604937580312 0.3 0  1.74980572560258 0.3 0  1.724092118631866 0.3 0  1.698463829173586 0.3 0  1.672920575782554 0.3 0  1.647462076974085 0.3 0  1.622088043536933 0.3 0  1.5967981978949 0.3 0  1.571592267767068 0.3 0  1.546469970305736 0.3 0  1.521431023814044 0.3 0  1.496475156230927 0.3 0  1.471602093687753 0.3 0  1.446811560490646 0.3 0  1.422103279101731 0.3 0  1.397476971708191 0.3 0  1.37293238939876 0.3 0  1.348469231419202 0.3 0  1.324087248732772 0.3 0  1.299786165921677 0.3 0  1.275565710847046 0.3 0  1.251425617644257 0.3 0  1.227365618676339 0.3 0  1.203385446174014 0.3 0  1.179484853067473 0.3 0  1.155663548773374 0.3 0  1.131921292279077 0.3 0  1.108257802159295 0.3 0  1.084672829009693 0.3 0  1.061166115303374 0.3 0  1.037737392995421 0.3 0  1.01438640299116 0.3 0  0.991112899770314 0.3 0  0.9679166155523955 0.3 0  0.944797284182564 0.3 0  0.921754678526042 0.3 0  0.8987885143602501 0.3 0  0.8758985548820624 0.3 0  0.8530845484099929 0.3 0  0.8303462351786988 0.3 0  0.8076833651172373 0.3 0  0.7850956864865304 0.3 0  0.7625829601354557 0.3 0  0.7401449314598274 0.3 0  0.717781337993959 0.3 0  0.6954919649675473 0.3 0  0.6732765357561226 0.3 0  0.6511348120768439 0.3 0  0.6290665642016573 0.3 0  0.6070715355430467 0.3 0  0.5851494825775325 0.3 0  0.5633001690203812 0.3 0  0.5415233562273221 0.3 0  0.5198187909431873 0.3 0  0.4981862401387795 0.3 0  0.4766254686134248 0.3 0  0.4551362360485234 0.3 0  0.4337182975262159 0.3 0  0.4123714223228037 0.3 0  0.3910953802377493 0.3 0  0.3698899313205595 0.3 0  0.3487548463710963 0.3 0  0.3276898864081783 0.3 0  0.3066948129116018 0.3 0  0.2857694003037476 0.3 0  0.2649134227095047 0.3 0  0.2441266417321288 0.3 0  0.2234088223399122 0.3 0  0.2027597568977288 0.3 0  0.1821792020676698 0.3 0  0.1616669305402443 0.3 0  0.1412227158799362 0.3 0  0.12084633013886 0.3 0  0.1005375673448281 0.3 0  0.08029618164595353 0.3 0  0.06012194778526769 0.3 0  0.04001466495039718 0.3 0  0.01997408913631205 0.3 0  0 0.2800000000000553 0  0 0.2600000000001105 0  0 0.2400000000001658 0  0 0.2200000000002211 0  0 0.2000000000002764 0  0 0.1800000000002244 0  0 0.1600000000001691 0  0 0.140000000000115 0  0 0.1200000000000564 0  1.133778471000506 0.01219539743990768 0  1.003741919047894 0.09354664821474232 0  0.9559421147150347 0.1035858189992458 0  0.9313792160389045 0.1037365237938103 0  0.9788461538460573 0.1033060829993555 0  0.9090102438250753 0.1037269304984056 0  0.8846304212778655 0.1043349840723655 0  0.8581503885465881 0.104741932962923 0  0.8286416220145676 0.1052762843984476 0  0.7982741772533339 0.1053575624517407 0  0.7708789559342691 0.1060290465840416 0  0.741870349714261 0.1078220590984258 0  0.7112469360040695 0.10685702926368 0  0.6783901541417233 0.1079959711853378 0  0.642884733623195 0.1075561996086514 0  0.6056235042367955 0.1085956039602543 0  0.5647007593786924 0.1083187281660325 0  1.1953125 0.01353164693413185 0  1.258148737344733 0.01268350115427042 0  1.320087046516829 0.01426312402966312 0  1.383495130751951 0.01432665475473204 0  1.4453125 0.01315663539200989 0  1.50886768312388 0.01395488397722681 0  0.9942307692307371 0.103330866937657 0  1.119309781943483 0.2802014914557878 0  1.572831235329714 0.01707210522554785 0  1.637611634353954 0.01209340368483431 0  1.709661292005932 0.0146870244871893 0  1.006561890631532 0.07068055446055937 0  1.784793444007901 0.01499371444634687 0  1.855459587353174 0.0
[...]
<PointData  Scalars="pressure"> 
<DataArray  type="Float64"  Name="pressure"  format="ascii">9.5485939101182762e-02  -2.3574626357247450e-01  -1.7683973933140301e-01  -1.2992550219417925e-01  8.4430336561204609e-03  0.0000000000000000e+00  0.0000000000000000e+00  9.5503169550478953e-02  8.9563218874202377e-02  8.3738777156795383e-02  7.8010923765019904e-02  7.2378023267274230e-02  6.6838432716382415e-02  6.1390601102701996e-02  5.6032946290559583e-02  5.0763899168711352e-02  4.5582006072053767e-02  4.0485653989583655e-02  3.5473376853785217e-02  3.0543762309997016e-02  2.5695275896495388e-02  2.0926519432124081e-02  1.6235998211780244e-02  1.1622337761549669e-02  7.0840357626688064e-03  2.6197807700254865e-03  -1.7719328580787363e-03  -6.0923916702248981e-03  -1.0343186119102114e-02  -1.4525569182309465e-02  -1.8640662939120551e-02  -2.2690395743046758e-02  -2.6675842172618675e-02  -3.0598544308362653e-02  -3.4459691362534232e-02  -3.8260851933817952e-02  -4.2003449488829281e-02  -4.5688800495174063e-02  -4.9318424914502980e-02  -5.2893287934281122e-02  -5.6415656319389502e-02  -5.9886502023497233e-02  -6.3307236696765884e-02  -6.6679362032136424e-02  -7.0004554494388055e-02  -7.3284058834703250e-02  -7.6519534323757424e-02  -7.9712380297288388e-02  -8.2864372424885119e-02  -8.5976874127365002e-02  -8.9051473637809894e-02  -9.2089639463237477e-02  -9.5093173093033639e-02  -9.8063425286775668e-02  -1.0100237892729522e-01  -1.0391131592898140e-01  -1.0679201115013461e-01  -1.0964638380672309e-01  -1.1247581177203492e-01  -1.1528181596349005e-01  -1.1806732078406190e-01  -1.2083169136766059e-01  -1.2357847853223856e-01  -1.2630915557978725e-01  -1.2902485087832249e-01  -1.3172922777837759e-01  -1.3442210497538196e-01  -1.3710414837442433e-01  -1.3977988065256397e-01  -1.4245041509654896e-01  -1.4511838824424464e-01  -1.4778371417391720e-01  -1.5044728658291417e-01  -1.5311534131868521e-01  -1.5578708283935866e-01  -1.5846531418051735e-01  -1.6115206430234408e-01  -1.6384947372384065e-01  -1.6655937055566111e-01  -1.6928512109313720e-01  -1.7202777119720547e-01  -1.7478980395530960e-01  -1.7757592829120655e-01  -1.8038827929586745e-01  -1.8322845700851639e-01  -1.8610145725260724e-01  -1.8901099793925927e-01  -1.9195963137727365e-01  -1.9495086467602160e-01  -1.9799633132039160e-01  -2.0109462934457745e-01  -2.0425490732720106e-01  -2.0748155490901660e-01  -2.1079592147622273e-01  -2.1418677727504043e-01  -2.1760986062937140e-01  -2.2194595227673758e-01  -2.2134205722063224e-01  -2.4642976566824601e-01  -2.1045617226851349e-01  -2.4124222278034688e-01  -2.4004525574323013e-01  -2.4805536332625355e-01  -2.5855103647247135e-01  -2.7517822134532760e-01  -2.7999499807725781e-01  -2.7808545617101293e-01  -2.7026188316761651e-01  -2.5837103895131136e-01  -2.4361832226094232e-01  -2.2735468754162755e-01  -2.1053581623600809e-01  -1.9399726506321915e-01  -1.8006422213601872e-01  -1.5748543802283449e-01  -1.7425077635923245e-01  -1.5200202144924363e-01  -1.4490979440737636e-01  -1.3962212124485057e-01  -1.3615714908261567e-01  -1.3361541298792087e-01  -1.3170250482801141e-01  -1.3037140938114597e-01  -1.2958986582774032e-01  -1.2935517173460181e-01  -1.2965463245431147e-01  -1.3026078733953686e-01  -1.3050074536172901e-01  -1.3022393287338077e-01  -1.2959102407133249e-01  -1.2876625633342648e-01  -1.2788949990915255e-01  -1.2704732900675705e-01  -1.2632736952287335e-01  -1.2579183317126044e-01  -1.2545294161502266e-01  -1.2530198697984876e-01  -1.2527346503853801e-01  -1.2524714985410917e-01  -1.2506360706330280e-01  -1.2452655539349469e-01  -1.2342969415499466e-01  -1.2152870697994331e-01  -1.1862088218696835e-01  -1.1454517354057857e-01  -1.0902159156386076e-01  -1.0224798429576014e-01  -9.4088388428247141e-02  -8.4707426157268728e-02  -7.4357178109684161e-02  -6.3219481648769144e-02  -5.1767435415506186e-02  -4.0157051947226054e-02  -2.8853686203371511e-02  -1.8112930475493911e-02  -8.1946438641948265e-03  6.9815812741114537e-04  1.5064879107954728e-02  2.0419275212114122e-02  2.4516116920149697e-02  2.7346713474710363e-02  2.9044490678516433e-02  2.9717603871891627e-02  2.9451769781497501e-02  2.8464630477190240e-02  2.6805314451098058e-02  2.4721508579968188e-02  2.2416721460338841e-02  2.0086224230204917e-02  1.7915187805570311e-02  1.6122676667582041e-02  1.4876840425710806e-02  1.4343606379554692e-02  1.4625851530133984e-02  1.5847298977038425e-02  1.7910308987283546e-02  2.0766238861391270e-02  2.4313220130255400e-02  2.8303034024660084e-02  3.2496817462931336e-02  3.6659684678661583e-02  4.0511475340049105e-02  4.3904982298973265e-02  4.6567019328335485e-02  4.8452302448091462e-02  4.9471715619848956e-02  4.9593628453989076e-02  4.8845206271456429e-02  4.7302053623115695e-02  4.5048640163250546e-02  4.2174552969820013e-02  3.8749320397826720e-02  3.4916183287230465e-02  3.0803335254172153e-02  2.6618225631464425e-02  2.2582437260337894e-02  1.8990406719077268e-02  1.6147347590695665e-02  1.4342758489148764e-02  1.3787816213980276e-02  1.4568250864816286e-02  1.6604381006487055e-02  1.9648712525079371e-02  2.3340757902463621e-02  2.7208299378191945e-02  3.0758509671523535e-02  3.3524507069260343e-02  3.5309766596489267e-02  3.5790966716212277e-02  3.4982879011362385e-02  3.3007016399007334e-02  2.9901543066405526e-02  2.5841358464753900e-02  2.1249475399899537e-02  1.6078943711977378e-02  1.0808508011605607e-02  5.6524144724522810e-03  1.0181600605741080e-03  -2.8777038291765201e-03  -5.4737471155357261e-03  -6.8036402499057087e-03  -6.4915480160866526e-03  -5.0114097012980132e-03  -2.2851573772861887e-03  0.0000000000000000e+00  0.0000000000000000e+00  0.0000000000000000e+00  0.0000000000000000e+00  0.0000000000000000e+00  0.0000000000000000e+00  0.0000000000000000e+00  0.0000000000000000e+00  0.0000000000000000e+00  5.9290750875356313e-03  1.1512604289371099e-02  1.6332369067885766e-02  1.9943122491591400e-02  2.2155512914685975e-02  2.2862706377285418e-02  2.2032049841628664e-02  1.9801826612241811e-02  1.6512879836096971e-02  1.2710499548024987e-02  9.0733063525114122e-03  6.3212321793405758e-03  5.0648466049517888e-03  5.6778895053382523e-03  8.2410596607326459e-03  1.2526373108502929e-02  1.8081263783578758e-02  2.4340276908371920e-02  3.0756819548721816e-02  3.6838249810692718e-02  4.2187958382975253e-02  4.6454066338199887e-02  4.9325128458442433e-02  5.0512368085048012e-02  4.9782945642104136e-02  4.7070162323159574e-02  4.2444571666174824e-02  3.6245027528028967e-02  2.9097110700077918e-02  2.1775502193987935e-02  1.5154972316866373e-02  9.9439677835491107e-03  6.6955424794357650e-03  5.4324478627790582e-03  6.4436703820334252e-03  8.7451108902933967e-03  1.2169655930838434e-02  1.5812377471969324e-02  1.9175410356322798e-02  2.1967077296608815e-02  2.3669665912665255e-02  2.4217271592723900e-02  2.3477118673359870e-02  2.1352896171667555e-02  1.7788517143079288e-02  1.2803651730852940e-02  6.4847098013839539e-03  -9.8677190363672426e-04  -9.3357214028399731e-03  -1.8158956709492774e-02  -2.7020507014468936e-02  -3.5435663069928271e-02  -4.3161644075119618e-02  -4.9899462033304545e-02  -5.5495108205830826e-02  -6.0069596123876509e-02  -6.3801062959511240e-02  -6.6956090085040249e-02  -6.9807143690234788e-02  -7.2638462232515175e-02  -7.5653596210121118e-02  -7.9015736412550094e-02  -8.2737578366073580e-02  -8.6919335565647807e-02  -9.1529818966346835e-02  -9.6527162086847890e-02  -1.0183830155370896e-01  -1.0737943345956133e-01  -1.1304567982882378e-01  -1.1874145246752814e-01  -1.2425125575995435e-01  -1.2962033264649139e-01  -1.3462914389977595e-01  -1.3913495501602538e-01  -1.4283619889618501e-01  -1.4587413946839706e-01  -1.4785451771220912e-01  -1.4891564677361674e-01  -1.4913233999789660e-01  -1.4805834969883716e-01  -1.4610470935017023e-01  -1.4329857561859816e-01  -1.3984950063940949e-01  -1.3579036865798041e-01  -1.3120096900472097e-01  -1.2618727243607056e-01  -1.2087812211071526e-01  -1.1531188284555029e-01  -1.0951668048447039e-01  -1.0358183922350918e-01  -9.7514036386930486e-02  -9.1359295131322765e-02  -8.5134170634435041e-02  -7.8853407765871866e-02  -7.2533093708226332e-02  -6.6191335802834581e-02  -5.9831500456181248e-02  -5.3462263075526817e-02  -4.7090319552209804e-02  -4.0722141448016468e-02  -3.4360556920297353e-02  -2.8006264287151413e-02  -2.1664177906283718e-02  -1.5335043276080977e-02  -9.0211025825020844e-03  -2.7227024197312576e-03  3.5590504822379083e-03  9.8225664414427049e-03  1.6068620045770931e-02  2.2295503169112951e-02  2.8503745911223278e-02  3.4692775373463776e-02  4.0862247230834481e-02  4.7012361974764112e-02  5.3142781024539731e-02  5.9253508256660412e-02  6.5344501049257084e-02  7.1415739687080412e-02  7.7467228672052676e-02  8.3498964432809533e-02  8.9510943947736829e-02  9.5503121352728954e-02  9.5502411198051460e-02  9.5500641605040404e-02  9.5497896920431799e-02  9.5494558341966101e-02  9.5491225096922511e-02  9.5488470224829744e-02  9.5486714194108785e-02  9.5486000901391241e-02  -1.2567933949587834e-01  -1.5494895872355810e-01  -2.7089833127931628e-01  -2.2959357668600994e-01  -2.3074893813562825e-01  -2.1281832166966355e-01  -1.9669517213775761e-01  -1.8196923071979415e-01  -1.6772225367744700e-01  -1.5463538796442919e-01  -1.4379938081742760e-01  -1.3304191110314414e-01  -1.2224653812873949e-01  -1.1115253599699822e-01  -9.9552875336726715e-02  -8.7689850896538968e-02  -7.4904970652185737e-02  -1.2475798742157022e-01  -1.2216758567812926e-01  -1.0607696966389571e-01  -6.9100933849838550e-02  -2.4288341319214049e-02  1.1514515359172559e-02  -1.6927766151498719e-01  -1.2108309655228659e-01  2.7935504953385027e-02  2.7806919497925527e-02  1.9057252228638601e-02  -1.3546197150083941e-01  1.4294402042857252e-02  2.1626884102839913e-02  -6.1710464260023183e-02  3.8140145891476948e-02  -9.8472622229658219e-02  -7.9901108812684835e-02  4.9001257198133558e-02  -6.7738424261652094e-02  -4.7296553926780179e-02  -4.7466482923036159e-02  4.6509412769668940e-02  -3.3195305866008419e-02  -1.2791663729534627e-01  3.3220538421752786e-02  -5.1861700554885620e-03  -1.3610820690792849e-01  -1.7045545199764433e-02  1.7634241328064813e-02  2.4145402265420599e-02  7.1934448714359761e-04  2.1183335903087075e-02  1.5073836202663506e-02  1.0493428336139192e-02  -1.4783983394008604e-01  2.9028827809365419e-02  1.8580675483898135e-02  5.6783363485653554e-03  -1.4686188173959219e-01  -1.3734807461036877e-01  1.7700490801100380e-02  3.5653711100385531e-02  3.8476732879587118e-02  5.3280652773698894e-02  1.5367692453926388e-02  2.8296202984903696e-02  1.3197507967413043e-02  -1.1834538850871791e-01  3.9093239668174379e-02  5.0146225413630230e-02  -1.0030471220551100e-01  -2.4398123196449667e-01  -2.7128392441412291e-01  -8.2157736630234443e-02  3.9967280155272226e-02  -8.2635860187627215e-04  -5.7511501347810690e-02  1.5420629039689125e-02  -2.5008964650893029e-02  4.7683378906976147e-03  6.6915126553292563e-03  1.0155694294280598e-02  2.5298220598236269e-02  6.2168502285084221e-02  4.4082660001762010e-02  2.0799531394046954e-02  9.0451119020393406e-02  2.4725883103996751e-03  6.9797801253811423e-02  -1.3049011193193463e-01  2.1634860495740267e-02  -7.2767075031219090e-03  -1.4164064027074297e-01  -1.2952265531284046e-01  -1.4350048375139246e-01  -1.0975500157933081e-01  -1.2879363938355479e-01  -6.9315371441292989e-02  -4.4210068417355829e-02  -1.1439461232616356e-02  -3.1427562522044816e-02  -6.1500078612006182e-02  -7.3079223090638440e-02  -8.8432703898958021e-02  2.8119089847013605e-02  9.4336598900464537e-03  4.8414847539274358e-02  2.8013365755553379e-02  -7.7539551337864913e-03  3.4282938594623662e-02  7.4344844692288886e-02  2.1187592994527379e-02  1.3808454130384383e-02  -2.4990588746972388e-02  2.4894424506325605e-02  9.0421887341922566e-02  4.0850279357124375e-02  -4.0035040488833031e-02  4.9335739619371863e-02  4.5261618458805525e-02  2.2007070995307767e-02  2.9449269409947087e-02  -5.4794480905551002e-02  1.6394985354608777e-02  1.5399692503161288e-02  2.3725074640514675e-02  -6.8462844831862740e-02  2.9452780203118725e-02  -2.3282900472362737e-03  -8.1298604815526615e-02  -9.3648407463801472e-02  -1.0562297702023625e-01  -1.1638860974916003e-01  -1.2789397096122571e-01  -1.3851802955314507e-01  -1.4946123893001242e-01  -1.6260073202732087e-01  -1.2494040124587172e-01  -1.7631770842007863e-01  -1.9076389641747019e-01  -2.0615398269538482e-01  -1.2435106734943768e-01  -2.2371646909189724e-01  -9.0298328750837029e-02  -1.1611284313483738e-01  -4.8501670188310267e-02  -4.4811673081574573e-03  9.0842393835544016e-02  -1.9739366539035863e-01  6.2910186527888436e-03  8.0836172816874552e-02  1.4615624880623861e-02  -1.3005573378388791e-01  -2.7148938780793110e-03  9.0979667297844388e-02  -1.2994389915211096e-01  -1.2961419355436010e-01  -1.2910739658645862e-01  -1.2950590123336173e-01  -1.2892745697513266e-01  -1.2953070429333094e-01  -1.2875592667788757e-01  -1.2948626468150468e-01  -1.2846131375336103e-01  -1.2910539262520312e-01  -1.2779307380228289e-01  -1.2818134230016814e-01  -1.2660058930531692e-01  -1.2677084062632540e-01  -1.2502234286808153e-01  -1.2522192652496705e-01  -1.2337388300236532e-01  -1.2389891202339370e-01  -1.2223260689774552e-01  -1.2336661190882429e-01  -1.2168464610681455e-01  -1.2541226355263280e-01  -1.2065894438446703e-01  -1.2030266314423868e-01  -1.2531567154947756e-01  -1.2797174469494202e-01  -1.1953793486919420e-01  -1.1934626444051924e-01  -1.1904834557492021e-01  -1.1896431478759108e-01  -1.1916472905629498e-01  -1.1908635790448666e-01  -1.1996535000181739e-01  -1.1961768666172011e-01  -1.2122610780019898e-01  -1.1992052320001878e-01  -1.2257677888643820e-01  -1.2074298221963055e-01  -1.2371609853387310e-01  -1.2068325307232468e-01  -1.2402146888204522e-01  -1.1858771941722465e-01  -1.2273941887375665e-01  -1.1663104899689059e-01  -1.1969759339607977e-01  -1.1220891671155546e-01  -1.1439312815277018e-01  -1.0590141389972037e-01  -1.0677441706296746e-01  -9.7828991649779901e-02  -9.6822223596479365e-02  -1.2799805319381929e-01  -1.3135990722399948e-01  -8.8363907356410393e-02  -8.5283278920293887e-02  -7.8130848363853617e-02  -7.2517059315099094e-02  -6.7549635954769857e-02  -6.0458922336581705e-02  -5.7128774794440021e-02  -4.8163482134127751e-02  -4.7433840947059804e-02  -3.6714205255820039e-02  -1.2019284721826101e-01  -3.8673075541358327e-02  -2.6459060761248203e-02  -3.0971746819425036e-02  -1.7735305078192248e-02  -2.4499450586699095e-02  -1.0575489250463085e-02  -1.3118858870643521e-01  -1.3533763932735951e-01  -1.2858542315683164e-01  -1.8878618846396487e-02  -4.8072565874117418e-03  -1.3170787825347677e-01  -1.3669673615435274e-02  -2.4750740490534650e-04  -9.4701404188720882e-03  3.2095166466141142e-03  -5.5059975250970070e-03  5.8559657063998651e-03  -1.1828395661851203e-01  -2.4383026040351017e-03  7.7733692888926759e-03  1.3067561214995145e-03  9.4070806424783899e-03  4.5416769851296928e-03  1.0656576600970207e-02  -1.2489977179523859e-01  -1.1713370859414650e-01  7.6077944208156776e-03  1.1808524095754560e-02  -1.3454928501268235e-01  -1.3994179318553046e-01  -1.3047479429933712e-01  -1.0819116199793058e-01  1.0350008755629567e-02  1.2923037085822785e-02  1.3236131482188579e-02  1.4102273864480352e-02  1.5922300521880921e-02  1.5362604666147434e-02  2.5696639865254505e-03  1.4362230710084344e-02  1.4174222953847756e-02  -2.5116512603879097e-02  1.8313804400648455e-02  1.6815607489960433e-02  1.3768124117178822e-02  1.4542570810063294e-02  1.8285774567888713e-02  1.5787948769415246e-02  1.9734707929758094e-02  1.7436782302531397e-02  2.1072603306757382e-02  1.9405893663589066e-02  2.2145240025743508e-02  2.1301320812473615e-02  2.2759299750345682e-02  2.3011251878039596e-02  2.2791415680517787e-02  2.4259646754581286e-02  2.2248974816719960e-02  2.5159552168076898e-02  2.1096778585810133e-02  2.5423760514562882e-02  1.9655942964525327e-02  2.5252589787235439e-02  1.7700946778578492e-02  2.4768949535017848e-02  -6.5311814766264867e-02  -8.8652422248009358e-02  1.6172059163252015e-02  2.4278270564570784e-02  1.5434582995045180e-02  2.4016043074619915e-02  -1.1988527817614893e-01  1.5486951649968697e-02  2.4259863516919115e-02  -1.2068897905179921e-01  -1.2593680466322846e-01  -1.3777056159528522e-01  -1.4295874461201147e-01  -1.4673568347868063e-01  -1.4984423134400721e-01  -1.5460857863185243e-01  -1.5738989487741167e-01  -1.6335728924858781e-01  -1.6515186757330105e-01  -1.7290559519441903e-01  -1.7265192338746613e-01  -1.8204180268035797e-01  -1.7919787478592597e-01  -1.9000584803867809e-01  -1.8492480475916151e-01  -1.9753385026503834e-01  -1.8995851196127547e-01  -1.9939809915977094e-01  -1.9075205664636313e-01  -2.0010872691901008e-01  -1.9251271134391762e-01  -1.9930493402159533e-01  -1.9157632400829289e-01  -1.9703195445101110e-01  -1.8954183346420789e-01  -1.9381544786598520e-01  -1.8678348629655050e-01  -1.9004914714199886e-01  -1.8345940438968300e-01  -1.8497114612858317e-01  -1.7986118345954422e-01  -1.7692805707334636e-01  -1.7978188056392283e-01  -1.7372622334211760e-01  -1.7590493230832221e-01  -1.7028819112746027e-01  -1.7206072017956350e-01  -1.6673459081762340e-01  -1.6799525721841452e-01  -1.6876075342890276e-01  -1.6312202401944040e-01  -1.6390720310182222e-01  -1.5917910551153067e-01  -1.5806895906686472e-01  -1.5447128958275338e-01  -1.5523379668441731e-01  -1.5081793430072077e-01  -1.5113948172217806e-01  -1.4706861335102536e-01  -1.5897546789643752e-01  -1.4707106060846675e-01  -1.4323544325010387e-01  -1.4284707189176424e-01  -1.3921333050553034e-01  -1.3941590915933319e-01  -1.3552759254788804e-01  -1.3557328781861011e-01  -1.3180923321397062e-01  -2.0175093157376259e-01  -1.8108414548311713e-01  -1.8193740469240921e-01  -2.0796084075520124e-01  -1.3168578742941425e-01  -1.2802506939396366e-01  -1.2804289232278396e-01  -1.2430676031682908e-01  -1.2418810325915566e-01  -1.2054131401502687e-01  -1.2028501308889260e-01  -1.1670839508108898e-01  -1.1692149063990839e-01  -1.1314832667003064e-01  -1.1277394193216808e-01  -1.0929720482256577e-01  -1.5327581481496683e-01  -1.0879974053157561e-01  -1.0543681037925268e-01  -2.0492514837102477e-01  -1.6394416550539309e-01  -1.3876753689164217e-01  -1.9663811748202517e-01  -1.0487365224294863e-01  -1.0145333932494326e-01  -1.0225737401038672e-01  -9.8053133350796434e-02  -9.7528041755969117e-02  -9.3990784397187388e-02  -9.4519611489376432e-02  -9.0470731089114728e-02  -8.9915765344255660e-02  -8.6416397060230410e-02  -1.7735562774037467e-01  -8.5842269144977335e-02  -8.2286165239442988e-02  -1.1314704392289311e-01  -1.5448328190595076e-01  -6.4360397981460260e-02  -1.6827806706242091e-01  -8.2880556622833973e-02  -7.8739187404557043e-02  -7.8136947483333871e-02  -7.4596267874567648e-02  1.6309131261157170e-02  2.4850086129441444e-02  1.8354529170243161e-02  2.6084951736285548e-02  2.1482602214800115e-02  2.7672425275562931e-02  -7.3820992249988587e-02  -7.0332889437465837e-02  -3.2372057221174678e-02  -7.0998076029661433e-02  -6.6765993789026479e-02  -6.6220870370186605e-02  -6.2557592564436632e-02  -1.3035766963402284e-01  -1.4700894201474485e-01  -1.3933407078775903e-01  2.1936750428405850e-02  2.5302484363304293e-02  2.9425788227284835e-02  1.2058258222505024e-02  3.2332595374079724e-02  3.1983114757244933e-02  3.1305385308457084e-02  3.1102491485804570e-02  3.0456218442911527e-02  3.2507409724993330e-02  2.9394297472539563e-02  3.3535401968620919e-02  2.8328464907761770e-02  3.4112849618499572e-02  2.7335492988633900e-02  3.4378521252902590e-02  2.6659755769442989e-02  3.4441919973130321e-02  2.6331350457500773e-02  3.4137133671314421e-02  2.6375021920717431e-02  3.3386596549373856e-02  2.6590334742885611e-02  3.2137771298760227e-02  2.6855887059127274e-02  3.0471191519377657e-02  2.6828632250644441e-02  2.8159890854042181e-02  2.6370580100339328e-02  -6.1996937370252664e-02  -5.8318116638358834e-02  -5.8619412986614092e-02  -5.4514346144094540e-02  -5.4004946704253314e