<?xml version="1.0"?>
<VTKFile type="UnstructuredGrid"  version="0.1"  >
<UnstructuredGrid>
<Piece  NumberOfPoints="2945" NumberOfCells="5525">
<Points>
<DataArray  type="Float64"  NumberOfComponents="3"  format="ascii">0 0.1 0  0.95 0.1 0  1 0.1 0  1 0 0  1.5 0 0  3 0 0  3 0.3 0  0 0.3 0  0.0197424558707114 0.1 0  0.03915669042224804 0.1 0  0.05824816022699029 0.1 0  0.07702223050332387 0.1 0  0.09548417327144595 0.1 0  0.1136391897583987 0.1 0  0.1314923700144587 0.1 0  0.1490487330862866 0.1 0  0.1663132263225292 0.1 0  0.1832906857273058 0.1 0  0.1999858946008978 0.1 0  0.216403545770297 0.1 0  0.2325482404045023 0.1 0  0.2484245348165176 0.1 0  0.2640368740372501 0.1 0  0.2793896589642241 0.1 0  0.2944872056237027 0.1 0  0.3093337469555254 0.1 0  0.3239334613687816 0.1 0  0.3382904528528069 0.1 0  0.3524087553122972 0.1 0  0.3662923366391824 0.1 0  0.3799451014768399 0.1 0  0.393370886920506 0.1 0  0.4065734648871676 0.1 0  0.419556546320114 0.1 0  0.4323237821343415 0.1 0  0.4448787573056132 0.1 0  0.4572250047274954 0.1 0  0.4693659926332938 0.1 0  0.4813051343276231 0.1 0  0.4930457849308193 0.1 0  0.5045912455271677 0.1 0  0.5159447600209797 0.1 0  0.5271095174127136 0.1 0  0.5380886618453393 0.1 0  0.5488852725463512 0.1 0  0.5595023868312478 0.1 0  0.5699429904313016 0.1 0  0.5802100167387366 0.1 0  0.5903063508274641 0.1 0  0.6002348329443006 0.1 0  0.6099982499579832 0.1 0  0.6195993483501782 0.1 0  0.6290408246013842 0.1 0  0.6383253354321616 0.1 0  0.6474554910757137 0.1 0  0.6564338522440513 0.1 0  0.6652629482939147 0.1 0  0.6739452579188948 0.1 0  0.6824832240165607 0.1 0  0.6908792415022103 0.1 0  0.6991356755989045 0.1 0  0.7072548438546967 0.1 0  0.7152390281534421 0.1 0  0.7230904746196039 0.1 0  0.7308113906759266 0.1 0  0.7384039435269326 0.1 0  0.7458702676581656 0.1 0  0.7532124631720397 0.1 0  0.7604325921167397 0.1 0  0.7675326856666862 0.1 0  0.7745147374421916 0.1 0  0.7813807123989068 0.1 0  0.7881325374362798 0.1 0  0.7947721131625659 0.1 0  0.8013013031866276 0.1 0  0.8077219449067021 0.1 0  0.8140358419942376 0.1 0  0.8202447685401882 0.1 0  0.8263504700910924 0.1 0  0.8323546643163114 0.1 0  0.8382590362474568 0.1 0  0.8440652473522128 0.1 0  0.8497749272799842 0.1 0  0.8553896837646281 0.1 0  0.8609110933285474 0.1 0  0.866340708855119 0.1 0  0.8716800550492284 0.1 0  0.8769306339052932 0.1 0  0.8820939206038667 0.1 0  0.8871713655604893 0.1 0  0.8921643975475726 0.1 0  0.8970744196575535 0.1 0  0.9019028106970642 0.1 0  0.9066509291259979 0.1 0  0.9113201098984042 0.1 0  0.9159116634553873 0.1 0  0.9204268818729691 0.1 0  0.9248670319440222 0.1 0  0.9292333656649013 0.1 0  0.9335271075812669 0.1 0  0.9377494640511216 0.1 0  0.941901623463222 0.1 0  0.9459847526686701 0.1 0  0.9538461538461205 0.1 0  0.9576923076922409 0.1 0  0.9615384615384381 0.1 0  0.9653846153846337 0.1 0  0.9692307692307542 0.1 0  0.9730769230768747 0.1 0  0.9769230769229952 0.1 0  0.9807692307691157 0.1 0  0.9846153846152361 0.1 0  0.9884615384614317 0.1 0  0.9923076923076356 0.1 0  0.9961538461538395 0.1 0  1 0.09591793123533533 0  1 0.09133596463859224 0  1 0.08619288104391448 0  1 0.08041996484521211 0  1 0.07394008421771697 0  1 0.06666666567302955 0  1 0.05850252932209174 0  1 0.04933859630113544 0  1 0.03905242821848202 0  1 0.02750659386753798 0  1 0.01454683679239736 0  1.015625 0 0  1.03125 0 0  1.046875 0 0  1.0625 0 0  1.078125 0 0  1.09375 0 0  1.109375 0 0  1.125 0 0  1.140625 0 0  1.15625 0 0  1.171875 0 0  1.1875 0 0  1.203125 0 0  1.21875 0 0  1.234375 0 0  1.25 0 0  1.265625 0 0  1.28125 0 0  1.296875 0 0  1.3125 0 0  1.328125 0 0  1.34375 0 0  1.359375 0 0  1.375 0 0  1.390625 0 0  1.40625 0 0  1.421875 0 0  1.4375 0 0  1.453125 0 0  1.46875 0 0  1.484375 0 0  1.515920751924515 0 0  1.531989369316721 0 0  1.54820720925872 0 0  1.564575665560501 0 0  1.581096138674279 0 0  1.597770029901263 0 0  1.614598783332311 0 0  1.631583831055205 0 0  1.64872661129721 0 0  1.666028606716533 0 0  1.683491276608443 0 0  1.701116134125304 0 0  1.718904673324128 0 0  1.736858414799339 0 0  1.754978895814663 0 0  1.773267661782904 0 0  1.791726281103402 0 0  1.810356325314689 0 0  1.8291593848892 0 0  1.848137076690385 0 0  1.867291007717254 0 0  1.886622833871288 0 0  1.90613418642363 0 0  1.925826753299799 0 0  1.945702199101513 0 0  1.96576223584749 0 0  1.986008569283268 0 0  2.006442931928877 0 0  2.02706707547783 0 0  2.047882750887917 0 0  2.06889175187935 0 0  2.090095860038271 0 0  2.111496891648636 0 0  2.133096679109554 0 0  2.154897066851056 0 0  2.176899916687499 0 0  2.199107102752146 0 0  2.22152053937028 0 0  2.244142122958061 0 0  2.266973806444078 0 0  2.290017523268154 0 0  2.313275249499252 0 0  2.336748971745516 0 0  2.360440702338606 0 0  2.384352453384031 0 0  2.408486280477412 0 0  2.432844240041185 0 0  2.457428414757088 0 0  2.482240901796653 0 0  2.507283830121838 0 0  2.532559332080812 0 0  2.558069568787417 0 0  2.583816724966441 0 0  2.60980299606584 0 0  2.636030600971886 0 0  2.662501790984011 0 0  2.689218818279327 0 0  2.716183964547616 0 0  2.743399548861297 0 0  2.77086788244719 0 0  2.798591312896326 0 0  2.826572223178268 0 0  2.854812990138617 0 0  2.883316031690714 0 0  2.912083780657189 0 0  2.941118704633482 0 0  2.970423276998917 0 0  3 0.02999999999994495 0  3 0.05999999999987042 0  3 0.089999999999783 0  3 0.119999999999701 0  3 0.149999999999619 0  3 0.179999999999692 0  3 0.2099999999997737 0  3 0.2399999999998511 0  3 0.2699999999999185 0  2.970138294777171 0.3 0  2.940375666438236 0.3 0  2.910711782853056 0.3 0  2.881146331305122 0.3 0  2.851678975030285 0.3 0  2.822309388626621 0.3 0  2.793037250095074 0.3 0  2.76386223529133 0.3 0  2.734784017903872 0.3 0  2.705802289276642 0.3 0  2.676916713794697 0.3 0  2.648126987654635 0.3 0  2.619432780406184 0.3 0  2.590833779385199 0.3 0  2.562329669847737 0.3 0  2.533920134950189 0.3 0  2.505604855727852 0.3 0  2.477383539822502 0.3 0  2.449255847639465 0.3 0  2.421221492569094 0.3 0  2.393280152486815 0.3 0  2.36543151914496 0.3 0  2.337675285481809 0.3 0  2.310011142385583 0.3 0  2.282438797441587 0.3 0  2.254957931061538 0.3 0  2.227568248063605 0.3 0  2.200269436651085 0.3 0  2.173061204949961 0.3 0  2.145943251515011 0.3 0  2.118915272469994 0.3 0  2.091976978084957 0.3 0  2.065128060700849 0.3 0  2.038368218849433 0.3 0  2.01169717777258 0.3 0  1.985114624111908 0.3 0  1.958620267850966 0.3 0  1.93221382054972 0.3 0  1.905894991850698 0.3 0  1.879663489459713 0.3 0  1.853519019126419 0.3 0  1.827461291053897 0.3 0  1.801490031354372 0.3 0  1.775604937580312 0.3 0  1.74980572560258 0.3 0  1.724092118631866 0.3 0  1.698463829173586 0.3 0  1.672920575782554 0.3 0  1.647462076974085 0.3 0  1.622088043536933 0.3 0  1.5967981978949 0.3 0  1.571592267767068 0.3 0  1.546469970305736 0.3 0  1.521431023814044 0.3 0  1.496475156230927 0.3 0  1.471602093687753 0.3 0  1.446811560490646 0.3 0  1.422103279101731 0.3 0  1.397476971708191 0.3 0  1.37293238939876 0.3 0  1.348469231419202 0.3 0  1.324087248732772 0.3 0  1.299786165921677 0.3 0  1.275565710847046 0.3 0  1.251425617644257 0.3 0  1.227365618676339 0.3 0  1.203385446174014 0.3 0  1.179484853067473 0.3 0  1.155663548773374 0.3 0  1.131921292279077 0.3 0  1.108257802159295 0.3 0  1.084672829009693 0.3 0  1.061166115303374 0.3 0  1.037737392995421 0.3 0  1.01438640299116 0.3 0  0.991112899770314 0.3 0  0.9679166155523955 0.3 0  0.944797284182564 0.3 0  0.921754678526042 0.3 0  0.8987885143602501 0.3 0  0.8758985548820624 0.3 0  0.8530845484099929 0.3 0  0.8303462351786988 0.3 0  0.8076833651172373 0.3 0  0.7850956864865304 0.3 0  0.7625829601354557 0.3 0  0.7401449314598274 0.3 0  0.717781337993959 0.3 0  0.6954919649675473 0.3 0  0.6732765357561226 0.3 0  0.6511348120768439 0.3 0  0.6290665642016573 0.3 0  0.6070715355430467 0.3 0  0.5851494825775325 0.3 0  0.5633001690203812 0.3 0  0.5415233562273221 0.3 0  0.5198187909431873 0.3 0  0.4981862401387795 0.3 0  0.4766254686134248 0.3 0  0.4551362360485234 0.3 0  0.4337182975262159 0.3 0  0.4123714223228037 0.3 0  0.3910953802377493 0.3 0  0.3698899313205595 0.3 0  0.3487548463710963 0.3 0  0.3276898864081783 0.3 0  0.3066948129116018 0.3 0  0.2857694003037476 0.3 0  0.2649134227095047 0.3 0  0.2441266417321288 0.3 0  0.2234088223399122 0.3 0  0.2027597568977288 0.3 0  0.1821792020676698 0.3 0  0.1616669305402443 0.3 0  0.1412227158799362 0.3 0  0.12084633013886 0.3 0  0.1005375673448281 0.3 0  0.08029618164595353 0.3 0  0.06012194778526769 0.3 0  0.04001466495039718 0.3 0  0.01997408913631205 0.3 0  0 0.2800000000000553 0  0 0.2600000000001105 0  0 0.2400000000001658 0  0 0.2200000000002211 0  0 0.2000000000002764 0  0 0.1800000000002244 0  0 0.1600000000001691 0  0 0.140000000000115 0  0 0.1200000000000564 0  1.133778471000506 0.01219539743990768 0  1.003741919047894 0.09354664821474232 0  0.9559421147150347 0.1035858189992458 0  0.9313792160389045 0.1037365237938103 0  0.9788461538460573 0.1033060829993555 0  0.9090102438250753 0.1037269304984056 0  0.8846304212778655 0.1043349840723655 0  0.8581503885465881 0.104741932962923 0  0.8286416220145676 0.1052762843984476 0  0.7982741772533339 0.1053575624517407 0  0.7708789559342691 0.1060290465840416 0  0.741870349714261 0.1078220590984258 0  0.7112469360040695 0.10685702926368 0  0.6783901541417233 0.1079959711853378 0  0.642884733623195 0.1075561996086514 0  0.6056235042367955 0.1085956039602543 0  0.5647007593786924 0.1083187281660325 0  1.1953125 0.01353164693413185 0  1.258148737344733 0.01268350115427042 0  1.320087046516829 0.01426312402966312 0  1.383495130751951 0.01432665475473204 0  1.4453125 0.01315663539200989 0  1.50886768312388 0.01395488397722681 0  0.9942307692307371 0.103330866937657 0  1.119309781943483 0.2802014914557878 0  1.572831235329714 0.01707210522554785 0  1.637611634353954 0.01209340368483431 0  1.709661292005932 0.0146870244871893 0  1.006561890631532 0.07068055446055937 0  1.784793444007901 0.01499371444634687 0  1.855459587353174 0.0
[...]
<PointData  Scalars="pressure"> 
<DataArray  type="Float64"  Name="pressure"  format="ascii">5.8042791143236905e-02  -2.5880979045807850e-01  -2.8666037572579511e-01  -2.3566041240670893e-01  -7.1582527419972494e-02  0.0000000000000000e+00  0.0000000000000000e+00  5.8059537879723851e-02  5.2120072496733935e-02  4.6295651071002107e-02  4.0567843810967286e-02  3.4935023151860548e-02  2.9395557602912497e-02  2.3947898774007187e-02  1.8590471373665339e-02  1.3321734238894815e-02  8.1402130607171400e-03  3.0443371368659724e-03  -1.9673364124887073e-03  -6.8962336363653657e-03  -1.1743841342248108e-02  -1.6511546799567688e-02  -2.1200801748285522e-02  -2.5812960875414730e-02  -3.0349467805298444e-02  -3.4811616597064853e-02  -3.9200835694507115e-02  -4.3518391879190987e-02  -4.7765754921942537e-02  -5.1944134336826278e-02  -5.6054701484433270e-02  -6.0099104065746090e-02  -6.4078440521422059e-02  -6.7994078781938153e-02  -7.1847177893522324e-02  -7.5639231216278274e-02  -7.9371292309586935e-02  -8.3044878140884099e-02  -8.6661005595631502e-02  -9.0220953611595919e-02  -9.3726314771385419e-02  -9.7178140301537486e-02  -1.0057761024828851e-01  -1.0392607119187050e-01  -1.0722491464827472e-01  -1.1047519613981945e-01  -1.1367834922208321e-01  -1.1683550590081010e-01  -1.1994813542464851e-01  -1.2301740244750402e-01  -1.2604455137261014e-01  -1.2903085382067367e-01  -1.3197773073288235e-01  -1.3488626963697120e-01  -1.3775800736071916e-01  -1.4059403800823664e-01  -1.4339570145796429e-01  -1.4616463583920700e-01  -1.4890153691715388e-01  -1.5160831228313545e-01  -1.5428623705496197e-01  -1.5693575322557357e-01  -1.5955909499203730e-01  -1.6215746085147340e-01  -1.6473180502257656e-01  -1.6728475471280835e-01  -1.6981590680257297e-01  -1.7232665715048406e-01  -1.7481971079175021e-01  -1.7729578392037851e-01  -1.7975700669585898e-01  -1.8220320601285236e-01  -1.8463566360705158e-01  -1.8705798925739950e-01  -1.8947002725469969e-01  -1.9187371431149725e-01  -1.9427042522245561e-01  -1.9666165843272745e-01  -1.9904869478893794e-01  -2.0143371091344831e-01  -2.0381747872943581e-01  -2.0620165713832650e-01  -2.0858910882262929e-01  -2.1098123825960244e-01  -2.1337898328327293e-01  -2.1578540873400931e-01  -2.1820270393023339e-01  -2.2063227277741179e-01  -2.2307601152947792e-01  -2.2554050281445900e-01  -2.2802482416192313e-01  -2.3053392900045525e-01  -2.3306912475682087e-01  -2.3564475127314272e-01  -2.3824715210087608e-01  -2.4082964188785452e-01  -2.4418410896907469e-01  -2.4298590663398045e-01  -2.6499975572974288e-01  -2.3189333845499735e-01  -2.5854384998988339e-01  -2.5665927292789681e-01  -2.6148922003812813e-01  -2.6805818557334543e-01  -2.7585689719143153e-01  -2.8005589506938072e-01  -2.8219086446654235e-01  -2.8236435428384465e-01  -2.8102480770395177e-01  -2.7848172526588894e-01  -2.7511515265987335e-01  -2.7121789470696434e-01  -2.6701066704962817e-01  -2.6425924738682449e-01  -2.5175787062100924e-01  -2.7262984828295328e-01  -2.5348821910485231e-01  -2.4716522199150920e-01  -2.4279197210514999e-01  -2.3999622266120310e-01  -2.3791961293800312e-01  -2.3628188372022471e-01  -2.3509996539935760e-01  -2.3444839047862129e-01  -2.3444147319745884e-01  -2.3515996378033627e-01  -2.3630390538884191e-01  -2.3709162562413333e-01  -2.3733655100415119e-01  -2.3709925961361791e-01  -2.3634270796642909e-01  -2.3493174397108943e-01  -2.3265444429367169e-01  -2.2935638742944076e-01  -2.2498668566582308e-01  -2.1951198875108291e-01  -2.1291759907156543e-01  -2.0527876452305441e-01  -1.9670685208012681e-01  -1.8733872941350199e-01  -1.7736449048448941e-01  -1.6700466397717548e-01  -1.5649765283641365e-01  -1.4603468263245309e-01  -1.3583130347841543e-01  -1.2619323547408473e-01  -1.1705547934201015e-01  -1.0878885091677383e-01  -1.0134330066026977e-01  -9.4819746048510622e-02  -8.9208110408691130e-02  -8.4578254998905256e-02  -8.0810942679393927e-02  -7.7845387173054906e-02  -7.5574361982019500e-02  -7.3875391760704970e-02  -7.2600678613009340e-02  -7.0639317848919442e-02  -6.9585266408020638e-02  -6.8238361332984415e-02  -6.6386848821868363e-02  -6.3967618149642191e-02  -6.0784383562739117e-02  -5.6810960635402266e-02  -5.1990871554240523e-02  -4.6387387185581032e-02  -4.0142827709744845e-02  -3.3434466013734176e-02  -2.6487730708402768e-02  -1.9532087230837328e-02  -1.2838803076068018e-02  -6.6277550363756177e-03  -1.1091557208904189e-03  3.5678360771995744e-03  7.2183566820223375e-03  9.9267505459835568e-03  1.1579797247382770e-02  1.2241576023355356e-02  1.2004470343473243e-02  1.0939398573066247e-02  9.1562634015035851e-03  6.7766372374604717e-03  3.9171822498284816e-03  8.0276601368264909e-04  -2.4983928186423244e-03  -5.7181329078453543e-03  -8.6100500722006527e-03  -1.0945062723930003e-02  -1.2453512247960577e-02  -1.2926178396959146e-02  -1.2224769279610323e-02  -1.0297231117016852e-02  -7.2588600204458184e-03  -3.3116968550312396e-03  1.2004059551866445e-03  5.9225464171002249e-03  1.0446345573110805e-02  1.4418962556336028e-02  1.7556523420297957e-02  1.9681873562516699e-02  2.0710666445918239e-02  2.0660352546143637e-02  1.9613161056655726e-02  1.7691827173160229e-02  1.5054588341382423e-02  1.1885107295148939e-02  8.3493859746193583e-03  4.5847981567456869e-03  9.7195086324285802e-04  -2.3951958486819157e-03  -5.0974817839686349e-03  -6.8110303756391292e-03  -7.3700355408548206e-03  -6.6752479479628762e-03  -4.6508994481147059e-03  -1.7144641068988613e-03  1.8062049805654633e-03  5.3662778249042196e-03  8.5921368050488750e-03  1.0764851768122993e-02  1.1758252695468575e-02  1.1021140421943274e-02  8.8698352555884562e-03  4.9619692943818124e-03  0.0000000000000000e+00  0.0000000000000000e+00  0.0000000000000000e+00  0.0000000000000000e+00  0.0000000000000000e+00  0.0000000000000000e+00  0.0000000000000000e+00  0.0000000000000000e+00  0.0000000000000000e+00  -2.6987881563385551e-03  -3.9381242413333442e-03  -3.4509124014565472e-03  -1.3601039769581245e-03  1.9926772977993234e-03  6.0569903149305018e-03  1.0368897656836240e-02  1.4515715411919067e-02  1.8148552506362586e-02  2.0967455135222267e-02  2.2697124563166655e-02  2.3095003974265695e-02  2.1983153107715685e-02  1.9305231557495760e-02  1.5186479849285528e-02  9.9568890495597244e-03  4.1691426336276849e-03  -1.4797052264944512e-03  -6.2631017000825632e-03  -9.5471050454796185e-03  -1.0926755641662388e-02  -1.0290967590158122e-02  -7.8279955230321965e-03  -3.9849659784932344e-03  7.3210801703342933e-04  5.6932865844025659e-03  1.0377310930728571e-02  1.4377690763124404e-02  1.7282740967210053e-02  1.8808835927244461e-02  1.8668812236336627e-02  1.6698246161654488e-02  1.2661882274140911e-02  6.8725512954447296e-03  -8.8437629199167311e-04  -9.8020247262380275e-03  -1.9395757052382414e-02  -2.8762964210566767e-02  -3.7108610686444637e-02  -4.3969310184445956e-02  -4.8849457436847307e-02  -5.1691716612440521e-02  -5.2928956072627494e-02  -5.2971486680841950e-02  -5.2420478974365831e-02  -5.1822872781785295e-02  -5.1665604419540760e-02  -5.2277338660070380e-02  -5.3801596770342873e-02  -5.6367432024595210e-02  -6.0025326094674411e-02  -6.4755859640997615e-02  -7.0566552199537336e-02  -7.7280963564155411e-02  -8.4869822123218933e-02  -9.3138855190132985e-02  -1.0189787320755382e-01  -1.1090620446114183e-01  -1.1995311655523587e-01  -1.2883160221441045e-01  -1.3740671894467876e-01  -1.4547404290544225e-01  -1.5302558544033579e-01  -1.6001157429888660e-01  -1.6638797268906755e-01  -1.7215458175188356e-01  -1.7736656566875206e-01  -1.8205914794171657e-01  -1.8625983544494329e-01  -1.9000713129262473e-01  -1.9323824220529723e-01  -1.9603830751373219e-01  -1.9836977728517366e-01  -2.0010956634560778e-01  -2.0106558486790665e-01  -2.0136626888451223e-01  -2.0080084067080659e-01  -1.9942339422131719e-01  -1.9739939483165012e-01  -1.9442416700005105e-01  -1.9082062349438927e-01  -1.8663444358892881e-01  -1.8201002571819544e-01  -1.7698923697162891e-01  -1.7162814139029045e-01  -1.6600231197462040e-01  -1.6019085256889856e-01  -1.5422400843406175e-01  -1.4811903544310942e-01  -1.4193252401889131e-01  -1.3566971392797189e-01  -1.2935861285331646e-01  -1.2301049131187040e-01  -1.1663421879097229e-01  -1.1024008949377040e-01  -1.0383852239124572e-01  -9.7433393612022454e-02  -9.1028722887819880e-02  -8.4629445480312690e-02  -7.8239405737570919e-02  -7.1860717280706365e-02  -6.5493612474428600e-02  -5.9141331377223751e-02  -5.2804450225053992e-02  -4.6484302264448878e-02  -4.0181297951104505e-02  -3.3895978627267308e-02  -2.7629611888487747e-02  -2.1381478164652478e-02  -1.5152900668386430e-02  -8.9433988199481024e-03  -2.7534079678032501e-03  3.4168198569286233e-03  9.5674776385393477e-03  1.5698313226026883e-02  2.1809344404179861e-02  2.7900553289076178e-02  3.3971939198741308e-02  4.0023520676447440e-02  4.6055307544066532e-02  5.2067309669932116e-02  5.8059492820009218e-02  5.8058810779148380e-02  5.8057095489118679e-02  5.8054423712638997e-02  5.8051168061360445e-02  5.8047917582610874e-02  5.8045236016133026e-02  5.8043533789602149e-02  5.8042849038753348e-02  -2.2662479898149354e-01  -2.5684524764943834e-01  -2.7315942620822725e-01  -2.4924097266292292e-01  -2.7444805383765231e-01  -2.3712949674950951e-01  -2.2444056736053758e-01  -2.1228198060815714e-01  -2.0003988948142451e-01  -1.8841113561956063e-01  -1.7852455496137476e-01  -1.6850509391881091e-01  -1.5827792582492892e-01  -1.4761465824904677e-01  -1.3633729074330583e-01  -1.2470108541419657e-01  -1.1207837303933688e-01  -2.0114600686977915e-01  -1.6193698158635711e-01  -1.2219738112668152e-01  -9.2068383201473689e-02  -7.6759224973487014e-02  -7.1049816990253839e-02  -2.6148023434855666e-01  -1.9093057940782060e-01  -6.5532738591719597e-02  -5.0490669705168863e-02  -2.3900714378667118e-02  -2.3957422019915134e-01  1.2716464361129569e-03  1.1683680292984026e-02  -9.8989803877222740e-02  8.1919971893000317e-03  -1.7409643455912829e-01  -1.4879460981601356e-01  -4.3788590470643721e-03  -1.1508550739540178e-01  -8.4646233773357671e-02  -7.4478813054674395e-02  -1.2778901767201499e-02  -7.0585235054547349e-02  -2.3497438890567365e-01  -5.7931131506634486e-03  -5.2442516868744432e-02  -1.9852205755864744e-01  -5.4461314061947208e-02  1.2164202945856521e-02  -5.2424712557988661e-02  -3.6710990256598283e-02  -4.1721715580662774e-02  2.0864344315740958e-02  -1.4678634564244333e-02  -1.9992130934375787e-01  1.3436147328900284e-02  -1.8856788358101197e-02  9.7190096560472936e-03  -1.9250788730669258e-01  -1.7896371770459563e-01  1.8997310888741490e-02  -4.4971321721752757e-04  1.0356313119501881e-03  1.5838312098727818e-02  -5.1630283065494421e-02  -7.4042070444412219e-03  -3.4067155786277475e-03  -1.5748366287745905e-01  1.2670210390268248e-02  -6.1262413298889861e-03  -1.3854961891256698e-01  -2.5940004663723376e-01  -2.8064064342961897e-01  -1.1998890695771819e-01  -1.0909213678811203e-02  6.5940921577197628e-03  -9.5099968481178535e-02  6.4488692653085246e-03  -6.2491069563844107e-02  2.0612230300328868e-02  -3.0761953799891835e-02  2.2192267355225146e-02  -1.2149501415496075e-02  2.4724468218088019e-02  6.6375549317951935e-03  1.2850085023673038e-02  5.3007770604436497e-02  -1.2165017037282710e-03  3.2354845591577079e-02  -2.3551465064434721e-01  6.8343157629560170e-04  1.1599771797650822e-02  -2.4460496803747753e-01  -2.3645712308587918e-01  -2.0069395757994538e-01  -1.8352687374261969e-01  -1.6894194546007774e-01  -1.0699117823697236e-01  -8.1738257459453623e-02  -4.8904781644276224e-02  -6.2003680053665015e-02  -9.7043219064870290e-02  -1.3202543448023377e-01  -1.6264825328694274e-01  -9.3204982183514445e-03  -2.8000799774452217e-02  3.5754540291431888e-03  -4.7224159492662687e-03  -4.5178606664307529e-02  7.0218186746268405e-03  3.6901104854464926e-02  1.8829085713862530e-02  1.8596232655483970e-02  -6.2395657111539250e-02  3.1032754542111717e-03  5.2978374216464820e-02  -1.1655323788734042e-02  -7.7408091636431670e-02  -9.2941132604027858e-03  2.2950326936252868e-03  -6.8983371836767143e-02  1.1619684005712096e-02  -9.2112252977319897e-02  8.2639874008705750e-03  -1.0420218602277504e-02  -3.7858881441414347e-02  -1.0569418330075241e-01  -5.9063150921015155e-02  3.8685361001128491e-03  -1.1839974011298582e-01  -1.3055695672540182e-01  -1.4225319355260546e-01  -1.5266469152525783e-01  -1.6364912547420918e-01  -1.7363226087560341e-01  -1.8371904872217310e-01  -1.9553265802318559e-01  -2.1578448700696318e-01  -2.0748196303881697e-01  -2.1960066708891715e-01  -2.3196559298745373e-01  -1.8266898003611587e-01  -2.4540192944894673e-01  -1.0568819568254899e-01  -1.4046473797639508e-01  -8.3426818584874093e-02  -7.3232752539192994e-02  5.3399187694912947e-02  -2.6709623686079259e-01  -4.1529326265825469e-03  4.3393062714874114e-02  -4.3279897326376025e-03  -2.3608905583817744e-01  4.7395910027520248e-03  5.3536050293839545e-02  -2.3642508598933734e-01  -2.3614564388734019e-01  -2.3613161444998887e-01  -2.3646884868257168e-01  -2.3654853181544847e-01  -2.3734942802307984e-01  -2.3746179148979510e-01  -2.3854035548357747e-01  -2.3872673501166936e-01  -2.3982656646899167e-01  -2.4001314836792967e-01  -2.4088243682900692e-01  -2.4103736942578449e-01  -2.4154247865007339e-01  -2.4165082102778615e-01  -2.4182759695884939e-01  -2.4163020263633281e-01  -2.4147260093691578e-01  -2.4057587391068880e-01  -2.3949854414650007e-01  -2.3749423736471684e-01  -2.4026696302849451e-01  -2.3855329940134470e-01  -2.3420433629849957e-01  -2.3729418630024876e-01  -2.3837821585369479e-01  -2.3437996873506570e-01  -2.2897487976177827e-01  -2.2920997292304712e-01  -2.2236918160984911e-01  -2.2196322139884453e-01  -2.1442784992572736e-01  -2.1307079420675179e-01  -2.0557757348466607e-01  -2.0279046536216369e-01  -1.9473396706970175e-01  -1.9093639923260447e-01  -1.8306698716496131e-01  -1.7833222722585187e-01  -1.7152407668915792e-01  -1.6546013873714280e-01  -1.5906038669968228e-01  -1.5247561909927312e-01  -1.4792039006066679e-01  -1.4017650734699608e-01  -1.3698625637490763e-01  -1.2857792998755993e-01  -1.2723593496430113e-01  -1.1809541687418559e-01  -1.1813670210334244e-01  -1.0918156536940653e-01  -2.3415997465729965e-01  -2.3535838240637344e-01  -1.0992780752374884e-01  -1.0017601106592094e-01  -1.0273873244779100e-01  -9.4196996009264941e-02  -9.7004528394407291e-02  -8.9182831389289077e-02  -9.2026193861272323e-02  -8.5102949575105946e-02  -8.7777296288158793e-02  -8.1950324880782993e-02  -2.2703511989425923e-01  -8.4101853333884730e-02  -7.9471036008597479e-02  -8.0827475781518707e-02  -7.7404053456752886e-02  -7.7757571543668094e-02  -7.5478937382574871e-02  -2.3040338139436631e-01  -2.3213610030871931e-01  -2.4092339348895855e-01  -7.4659555222033713e-02  -7.3397469292714443e-02  -2.3826838188837413e-01  -7.1442801583226065e-02  -7.0963236716616057e-02  -6.8022578514213686e-02  -6.8044919191915978e-02  -6.4388250453034881e-02  -6.4526411410653628e-02  -2.0742732470708725e-01  -6.0476140072997904e-02  -6.0489144831206432e-02  -5.6659637925786682e-02  -5.6101035003686267e-02  -5.2945198731454611e-02  -5.1534884623945162e-02  -2.4067352727178926e-01  -1.7636385021162429e-01  -4.9504777749689394e-02  -4.7119725919879021e-02  -2.2620340888322635e-01  -2.2936451819454606e-01  -2.2382533738105048e-01  -1.4514580393187254e-01  -4.6723705084196487e-02  -4.2986886272580051e-02  -4.4652776479016137e-02  -3.9468984583651820e-02  -4.3315487943705419e-02  -3.6812266100959147e-02  -7.4028478622475080e-02  -4.2756029162803702e-02  -6.8011178451773846e-02  -7.7541999902952130e-02  -4.2543899758534606e-02  -3.4884844159913032e-02  -2.8194515500294524e-02  -2.4906935273061225e-02  -3.3341942593103281e-02  -2.2295870651755541e-02  -3.1937680064058227e-02  -2.0085318648488747e-02  -3.0573967211845091e-02  -1.8411934149691375e-02  -2.8925218010413527e-02  -1.6697619669299970e-02  -2.6609925308557977e-02  -1.5007497885813070e-02  -2.3879974079902819e-02  -1.3105088681480637e-02  -2.0186336016927434e-02  -1.0756484933295670e-02  -1.6025555178778326e-02  -8.6451338234720086e-03  -1.1575879043975895e-02  -6.6134624377918276e-03  -7.1325877278884051e-03  -4.6213795696403810e-03  -8.7481944986114724e-02  -1.1927896531451052e-01  -2.7206831083747261e-03  -2.8738224115228378e-03  1.1901550221276509e-03  -1.0963501106915116e-03  -2.1930623475122993e-01  4.5621797083015211e-03  3.3098695751848742e-04  -1.3258227438360012e-01  -1.7247880575926269e-01  -2.2159885529004494e-01  -2.2236080438163841e-01  -2.3070004567248914e-01  -2.2641937307512572e-01  -2.3302194091879239e-01  -2.2904385977942809e-01  -2.3547526687781548e-01  -2.3107266074506386e-01  -2.3766051888981390e-01  -2.3273773367881057e-01  -2.3920894527553527e-01  -2.3349054204055328e-01  -2.3991364173136692e-01  -2.3361186428922412e-01  -2.4018569810555673e-01  -2.3346278747409308e-01  -2.3786722005006852e-01  -2.3093503467542467e-01  -2.3562412187432039e-01  -2.2958902718356095e-01  -2.3274372827695577e-01  -2.2688297916887229e-01  -2.2933215398235257e-01  -2.2376611726970405e-01  -2.2560667441829477e-01  -2.2041478707648188e-01  -2.2169487007696190e-01  -2.1678054006981817e-01  -2.2337855011063162e-01  -2.1521582875401832e-01  -2.1185131599358389e-01  -2.1300937928515964e-01  -2.0840323013811571e-01  -2.0921152687643313e-01  -2.0487372239880536e-01  -2.0555096275104856e-01  -2.0132983351992340e-01  -2.0396333771243855e-01  -2.0227516704442622e-01  -1.9778379959342066e-01  -1.9780450095970484e-01  -1.9397397061783711e-01  -1.9373942251234530e-01  -1.9014131937509884e-01  -1.9017561811608219e-01  -1.8651926878177350e-01  -1.8627528492457243e-01  -1.8284619226526705e-01  -2.3846845887864268e-01  -1.8239658782167875e-01  -1.7909321342610773e-01  -1.7927835893740776e-01  -1.7563156706948171e-01  -1.7534815953089172e-01  -1.7195420072681539e-01  -1.7159170498687953e-01  -1.6826477639139756e-01  -2.4586279033115208e-01  -2.2862622583990244e-01  -2.4387138616615459e-01  -2.4151855937364997e-01  -1.6774798702121871e-01  -1.6451272458637251e-01  -1.6491717837357309e-01  -1.6116474808839229e-01  -1.6072426177815960e-01  -1.5739583650116995e-01  -1.5687681722940788e-01  -1.5357474528822571e-01  -1.5407238847590379e-01  -1.5026020155251665e-01  -1.4965408710853895e-01  -1.4639075470473220e-01  -1.8987556904627423e-01  -1.4570318839892402e-01  -1.4252482717086395e-01  -2.3508176665109562e-01  -2.2608395835153658e-01  -1.7580528802796389e-01  -2.2651231300454278e-01  -1.4180630305915382e-01  -1.3854810348956415e-01  -1.3951671267107010e-01  -1.3529866850054317e-01  -1.3462992094491977e-01  -1.3122321953726188e-01  -1.3189995759618997e-01  -1.2781889066318772e-01  -1.2714266168272176e-01  -1.2374289333067394e-01  -2.0967551000326104e-01  -1.2307046612456034e-01  -1.1959989235761048e-01  -1.5053890789769009e-01  -1.8904896183242506e-01  -9.9976409316146986e-02  -2.0131191069538892e-01  -1.2029347989848646e-01  -1.1612745096934902e-01  -1.1544376875220579e-01  -1.1196768736274310e-01  7.4736260050285849e-03  1.9137908369366964e-03  9.6176879413966895e-03  3.2696992546475032e-03  1.0952065919311032e-02  4.5563010547665988e-03  -1.1112628596840574e-01  -1.0769357313494718e-01  -7.6860811624105171e-02  -1.0842418781199280e-01  -1.0417465078732044e-01  -1.0357636570526192e-01  -9.9954547261978596e-02  -2.3826878448933531e-01  -2.1935977224062980e-01  -1.7489280811091021e-01  -4.7688004170326030e-03  1.1471822732850726e-02  5.5358721999004554e-03  -1.8653596247226643e-02  -4.1903051379634446e-03  -1.4357354235210612e-03  6.1268232782929737e-04  6.1385558412809932e-03  2.5975686652437826e-03  6.1350531497391678e-03  4.3070008893167549e-03  5.5398708232604196e-03  5.4935781347166214e-03  4.3307097811341611e-03  6.0563620259821375e-03  2.6220994196296888e-03  5.9635925189968431e-03  6.0417778540634349e-04  5.3990846524142530e-03  -1.3187383690910284e-03  4.6189850705051581e-03  -2.6811548789097625e-03  3.9284174405798495e-03  -3.2055208762228385e-03  3.4855397086466624e-03  -2.9589529129462415e-03  3.4511849597429122e-03  -1.8197161979673108e