<?xml version="1.0"?>
<VTKFile type="UnstructuredGrid"  version="0.1"  >
<UnstructuredGrid>
<Piece  NumberOfPoints="2945" NumberOfCells="5525">
<Points>
<DataArray  type="Float64"  NumberOfComponents="3"  format="ascii">0 0.1 0  0.95 0.1 0  1 0.1 0  1 0 0  1.5 0 0  3 0 0  3 0.3 0  0 0.3 0  0.0197424558707114 0.1 0  0.03915669042224804 0.1 0  0.05824816022699029 0.1 0  0.07702223050332387 0.1 0  0.09548417327144595 0.1 0  0.1136391897583987 0.1 0  0.1314923700144587 0.1 0  0.1490487330862866 0.1 0  0.1663132263225292 0.1 0  0.1832906857273058 0.1 0  0.1999858946008978 0.1 0  0.216403545770297 0.1 0  0.2325482404045023 0.1 0  0.2484245348165176 0.1 0  0.2640368740372501 0.1 0  0.2793896589642241 0.1 0  0.2944872056237027 0.1 0  0.3093337469555254 0.1 0  0.3239334613687816 0.1 0  0.3382904528528069 0.1 0  0.3524087553122972 0.1 0  0.3662923366391824 0.1 0  0.3799451014768399 0.1 0  0.393370886920506 0.1 0  0.4065734648871676 0.1 0  0.419556546320114 0.1 0  0.4323237821343415 0.1 0  0.4448787573056132 0.1 0  0.4572250047274954 0.1 0  0.4693659926332938 0.1 0  0.4813051343276231 0.1 0  0.4930457849308193 0.1 0  0.5045912455271677 0.1 0  0.5159447600209797 0.1 0  0.5271095174127136 0.1 0  0.5380886618453393 0.1 0  0.5488852725463512 0.1 0  0.5595023868312478 0.1 0  0.5699429904313016 0.1 0  0.5802100167387366 0.1 0  0.5903063508274641 0.1 0  0.6002348329443006 0.1 0  0.6099982499579832 0.1 0  0.6195993483501782 0.1 0  0.6290408246013842 0.1 0  0.6383253354321616 0.1 0  0.6474554910757137 0.1 0  0.6564338522440513 0.1 0  0.6652629482939147 0.1 0  0.6739452579188948 0.1 0  0.6824832240165607 0.1 0  0.6908792415022103 0.1 0  0.6991356755989045 0.1 0  0.7072548438546967 0.1 0  0.7152390281534421 0.1 0  0.7230904746196039 0.1 0  0.7308113906759266 0.1 0  0.7384039435269326 0.1 0  0.7458702676581656 0.1 0  0.7532124631720397 0.1 0  0.7604325921167397 0.1 0  0.7675326856666862 0.1 0  0.7745147374421916 0.1 0  0.7813807123989068 0.1 0  0.7881325374362798 0.1 0  0.7947721131625659 0.1 0  0.8013013031866276 0.1 0  0.8077219449067021 0.1 0  0.8140358419942376 0.1 0  0.8202447685401882 0.1 0  0.8263504700910924 0.1 0  0.8323546643163114 0.1 0  0.8382590362474568 0.1 0  0.8440652473522128 0.1 0  0.8497749272799842 0.1 0  0.8553896837646281 0.1 0  0.8609110933285474 0.1 0  0.866340708855119 0.1 0  0.8716800550492284 0.1 0  0.8769306339052932 0.1 0  0.8820939206038667 0.1 0  0.8871713655604893 0.1 0  0.8921643975475726 0.1 0  0.8970744196575535 0.1 0  0.9019028106970642 0.1 0  0.9066509291259979 0.1 0  0.9113201098984042 0.1 0  0.9159116634553873 0.1 0  0.9204268818729691 0.1 0  0.9248670319440222 0.1 0  0.9292333656649013 0.1 0  0.9335271075812669 0.1 0  0.9377494640511216 0.1 0  0.941901623463222 0.1 0  0.9459847526686701 0.1 0  0.9538461538461205 0.1 0  0.9576923076922409 0.1 0  0.9615384615384381 0.1 0  0.9653846153846337 0.1 0  0.9692307692307542 0.1 0  0.9730769230768747 0.1 0  0.9769230769229952 0.1 0  0.9807692307691157 0.1 0  0.9846153846152361 0.1 0  0.9884615384614317 0.1 0  0.9923076923076356 0.1 0  0.9961538461538395 0.1 0  1 0.09591793123533533 0  1 0.09133596463859224 0  1 0.08619288104391448 0  1 0.08041996484521211 0  1 0.07394008421771697 0  1 0.06666666567302955 0  1 0.05850252932209174 0  1 0.04933859630113544 0  1 0.03905242821848202 0  1 0.02750659386753798 0  1 0.01454683679239736 0  1.015625 0 0  1.03125 0 0  1.046875 0 0  1.0625 0 0  1.078125 0 0  1.09375 0 0  1.109375 0 0  1.125 0 0  1.140625 0 0  1.15625 0 0  1.171875 0 0  1.1875 0 0  1.203125 0 0  1.21875 0 0  1.234375 0 0  1.25 0 0  1.265625 0 0  1.28125 0 0  1.296875 0 0  1.3125 0 0  1.328125 0 0  1.34375 0 0  1.359375 0 0  1.375 0 0  1.390625 0 0  1.40625 0 0  1.421875 0 0  1.4375 0 0  1.453125 0 0  1.46875 0 0  1.484375 0 0  1.515920751924515 0 0  1.531989369316721 0 0  1.54820720925872 0 0  1.564575665560501 0 0  1.581096138674279 0 0  1.597770029901263 0 0  1.614598783332311 0 0  1.631583831055205 0 0  1.64872661129721 0 0  1.666028606716533 0 0  1.683491276608443 0 0  1.701116134125304 0 0  1.718904673324128 0 0  1.736858414799339 0 0  1.754978895814663 0 0  1.773267661782904 0 0  1.791726281103402 0 0  1.810356325314689 0 0  1.8291593848892 0 0  1.848137076690385 0 0  1.867291007717254 0 0  1.886622833871288 0 0  1.90613418642363 0 0  1.925826753299799 0 0  1.945702199101513 0 0  1.96576223584749 0 0  1.986008569283268 0 0  2.006442931928877 0 0  2.02706707547783 0 0  2.047882750887917 0 0  2.06889175187935 0 0  2.090095860038271 0 0  2.111496891648636 0 0  2.133096679109554 0 0  2.154897066851056 0 0  2.176899916687499 0 0  2.199107102752146 0 0  2.22152053937028 0 0  2.244142122958061 0 0  2.266973806444078 0 0  2.290017523268154 0 0  2.313275249499252 0 0  2.336748971745516 0 0  2.360440702338606 0 0  2.384352453384031 0 0  2.408486280477412 0 0  2.432844240041185 0 0  2.457428414757088 0 0  2.482240901796653 0 0  2.507283830121838 0 0  2.532559332080812 0 0  2.558069568787417 0 0  2.583816724966441 0 0  2.60980299606584 0 0  2.636030600971886 0 0  2.662501790984011 0 0  2.689218818279327 0 0  2.716183964547616 0 0  2.743399548861297 0 0  2.77086788244719 0 0  2.798591312896326 0 0  2.826572223178268 0 0  2.854812990138617 0 0  2.883316031690714 0 0  2.912083780657189 0 0  2.941118704633482 0 0  2.970423276998917 0 0  3 0.02999999999994495 0  3 0.05999999999987042 0  3 0.089999999999783 0  3 0.119999999999701 0  3 0.149999999999619 0  3 0.179999999999692 0  3 0.2099999999997737 0  3 0.2399999999998511 0  3 0.2699999999999185 0  2.970138294777171 0.3 0  2.940375666438236 0.3 0  2.910711782853056 0.3 0  2.881146331305122 0.3 0  2.851678975030285 0.3 0  2.822309388626621 0.3 0  2.793037250095074 0.3 0  2.76386223529133 0.3 0  2.734784017903872 0.3 0  2.705802289276642 0.3 0  2.676916713794697 0.3 0  2.648126987654635 0.3 0  2.619432780406184 0.3 0  2.590833779385199 0.3 0  2.562329669847737 0.3 0  2.533920134950189 0.3 0  2.505604855727852 0.3 0  2.477383539822502 0.3 0  2.449255847639465 0.3 0  2.421221492569094 0.3 0  2.393280152486815 0.3 0  2.36543151914496 0.3 0  2.337675285481809 0.3 0  2.310011142385583 0.3 0  2.282438797441587 0.3 0  2.254957931061538 0.3 0  2.227568248063605 0.3 0  2.200269436651085 0.3 0  2.173061204949961 0.3 0  2.145943251515011 0.3 0  2.118915272469994 0.3 0  2.091976978084957 0.3 0  2.065128060700849 0.3 0  2.038368218849433 0.3 0  2.01169717777258 0.3 0  1.985114624111908 0.3 0  1.958620267850966 0.3 0  1.93221382054972 0.3 0  1.905894991850698 0.3 0  1.879663489459713 0.3 0  1.853519019126419 0.3 0  1.827461291053897 0.3 0  1.801490031354372 0.3 0  1.775604937580312 0.3 0  1.74980572560258 0.3 0  1.724092118631866 0.3 0  1.698463829173586 0.3 0  1.672920575782554 0.3 0  1.647462076974085 0.3 0  1.622088043536933 0.3 0  1.5967981978949 0.3 0  1.571592267767068 0.3 0  1.546469970305736 0.3 0  1.521431023814044 0.3 0  1.496475156230927 0.3 0  1.471602093687753 0.3 0  1.446811560490646 0.3 0  1.422103279101731 0.3 0  1.397476971708191 0.3 0  1.37293238939876 0.3 0  1.348469231419202 0.3 0  1.324087248732772 0.3 0  1.299786165921677 0.3 0  1.275565710847046 0.3 0  1.251425617644257 0.3 0  1.227365618676339 0.3 0  1.203385446174014 0.3 0  1.179484853067473 0.3 0  1.155663548773374 0.3 0  1.131921292279077 0.3 0  1.108257802159295 0.3 0  1.084672829009693 0.3 0  1.061166115303374 0.3 0  1.037737392995421 0.3 0  1.01438640299116 0.3 0  0.991112899770314 0.3 0  0.9679166155523955 0.3 0  0.944797284182564 0.3 0  0.921754678526042 0.3 0  0.8987885143602501 0.3 0  0.8758985548820624 0.3 0  0.8530845484099929 0.3 0  0.8303462351786988 0.3 0  0.8076833651172373 0.3 0  0.7850956864865304 0.3 0  0.7625829601354557 0.3 0  0.7401449314598274 0.3 0  0.717781337993959 0.3 0  0.6954919649675473 0.3 0  0.6732765357561226 0.3 0  0.6511348120768439 0.3 0  0.6290665642016573 0.3 0  0.6070715355430467 0.3 0  0.5851494825775325 0.3 0  0.5633001690203812 0.3 0  0.5415233562273221 0.3 0  0.5198187909431873 0.3 0  0.4981862401387795 0.3 0  0.4766254686134248 0.3 0  0.4551362360485234 0.3 0  0.4337182975262159 0.3 0  0.4123714223228037 0.3 0  0.3910953802377493 0.3 0  0.3698899313205595 0.3 0  0.3487548463710963 0.3 0  0.3276898864081783 0.3 0  0.3066948129116018 0.3 0  0.2857694003037476 0.3 0  0.2649134227095047 0.3 0  0.2441266417321288 0.3 0  0.2234088223399122 0.3 0  0.2027597568977288 0.3 0  0.1821792020676698 0.3 0  0.1616669305402443 0.3 0  0.1412227158799362 0.3 0  0.12084633013886 0.3 0  0.1005375673448281 0.3 0  0.08029618164595353 0.3 0  0.06012194778526769 0.3 0  0.04001466495039718 0.3 0  0.01997408913631205 0.3 0  0 0.2800000000000553 0  0 0.2600000000001105 0  0 0.2400000000001658 0  0 0.2200000000002211 0  0 0.2000000000002764 0  0 0.1800000000002244 0  0 0.1600000000001691 0  0 0.140000000000115 0  0 0.1200000000000564 0  1.133778471000506 0.01219539743990768 0  1.003741919047894 0.09354664821474232 0  0.9559421147150347 0.1035858189992458 0  0.9313792160389045 0.1037365237938103 0  0.9788461538460573 0.1033060829993555 0  0.9090102438250753 0.1037269304984056 0  0.8846304212778655 0.1043349840723655 0  0.8581503885465881 0.104741932962923 0  0.8286416220145676 0.1052762843984476 0  0.7982741772533339 0.1053575624517407 0  0.7708789559342691 0.1060290465840416 0  0.741870349714261 0.1078220590984258 0  0.7112469360040695 0.10685702926368 0  0.6783901541417233 0.1079959711853378 0  0.642884733623195 0.1075561996086514 0  0.6056235042367955 0.1085956039602543 0  0.5647007593786924 0.1083187281660325 0  1.1953125 0.01353164693413185 0  1.258148737344733 0.01268350115427042 0  1.320087046516829 0.01426312402966312 0  1.383495130751951 0.01432665475473204 0  1.4453125 0.01315663539200989 0  1.50886768312388 0.01395488397722681 0  0.9942307692307371 0.103330866937657 0  1.119309781943483 0.2802014914557878 0  1.572831235329714 0.01707210522554785 0  1.637611634353954 0.01209340368483431 0  1.709661292005932 0.0146870244871893 0  1.006561890631532 0.07068055446055937 0  1.784793444007901 0.01499371444634687 0  1.855459587353174 0.0
[...]
<PointData  Scalars="pressure"> 
<DataArray  type="Float64"  Name="pressure"  format="ascii">6.1104581702844871e-02  -2.6866894948735742e-01  -2.1464322311180781e-01  -1.7070490652454187e-01  -1.7288908665957285e-02  0.0000000000000000e+00  0.0000000000000000e+00  6.1120830632668280e-02  5.5181860721033364e-02  4.9357430530435620e-02  4.3629604862105362e-02  3.7996750897595848e-02  3.2457230767864088e-02  2.7009493430354754e-02  2.1651960987830478e-02  1.6383071507986256e-02  1.1201366767987359e-02  6.1052486331940785e-03  1.0932549671046241e-03  -3.8360286063729497e-03  -8.6841222328409295e-03  -1.3452422169862175e-02  -1.8142409723288240e-02  -2.2755455496648622e-02  -2.7293044805776448e-02  -3.1756486839929300e-02  -3.6147266642433715e-02  -4.0466667898952535e-02  -4.4716250582466963e-02  -4.8897263610472273e-02  -5.3010838377119798e-02  -5.7058837544062317e-02  -6.1042346132145667e-02  -6.4962873636751670e-02  -6.8821607357604397e-02  -7.2620078183957298e-02  -7.6359689099673000e-02  -8.0041737150073164e-02  -8.3667716441351514e-02  -8.7238593547009455e-02  -9.0756553632389006e-02  -9.4222575084525390e-02  -9.7638050060601750e-02  -1.0100444440147847e-01  -1.0432339364092465e-01  -1.0759613596712142e-01  -1.1082428387359093e-01  -1.1400922648423865e-01  -1.1715268747417545e-01  -1.2025601230848998e-01  -1.2332077292911572e-01  -1.2634840230557146e-01  -1.2934065878433010e-01  -1.3229889908873022e-01  -1.3522504745419553e-01  -1.3812038128727652e-01  -1.4098665416033207e-01  -1.4382569234678849e-01  -1.4663902384585792e-01  -1.4942788245234229e-01  -1.5219542958282864e-01  -1.5494091059923751e-01  -1.5766784902565051e-01  -1.6037768627034024e-01  -1.6307159330783769e-01  -1.6575303563994795e-01  -1.6842225345136344e-01  -1.7107946180499625e-01  -1.7372926167828076e-01  -1.7637295735872843e-01  -1.7901292509854336e-01  -1.8164944122588428e-01  -1.8428295152358187e-01  -1.8691992644890273e-01  -1.8955954889555235e-01  -1.9220461381357951e-01  -1.9485717569119948e-01  -1.9751926410686338e-01  -2.0019281707458822e-01  -2.0288116889507882e-01  -2.0558550722787267e-01  -2.0830809609201204e-01  -2.1105362108356454e-01  -2.1382446486136303e-01  -2.1662203844273528e-01  -2.1945124475102007e-01  -2.2231623213281207e-01  -2.2521916707031081e-01  -2.2816342578788143e-01  -2.3116081822078161e-01  -2.3421002257358622e-01  -2.3732006255374424e-01  -2.4049506362521572e-01  -2.4375648406380876e-01  -2.4709302866633756e-01  -2.5046088127330379e-01  -2.5472802561427366e-01  -2.5412885571642402e-01  -2.7883490695682872e-01  -2.4345811974391574e-01  -2.7371092989537266e-01  -2.7255096505417992e-01  -2.8036350054350606e-01  -2.9070467713173831e-01  -3.0705653438713265e-01  -3.1222716238330628e-01  -3.1101946780062484e-01  -3.0414616976695724e-01  -2.9331600638819411e-01  -2.7964381095488294e-01  -2.6439011432750043e-01  -2.4845218531788729e-01  -2.3262093306950715e-01  -2.1908561322677012e-01  -1.9726414906867909e-01  -2.1132956356219321e-01  -1.9024125890266538e-01  -1.8354314930524512e-01  -1.7863515822171447e-01  -1.7550043520764616e-01  -1.7326809107108856e-01  -1.7163863915734370e-01  -1.7056398361153549e-01  -1.7001813770572732e-01  -1.6999307169933767e-01  -1.7043200113508974e-01  -1.7104410825029664e-01  -1.7148336227789668e-01  -1.7156323698187001e-01  -1.7143874432979309e-01  -1.7126440172498100e-01  -1.7113351082837264e-01  -1.7106804513212473e-01  -1.7110376950011616e-01  -1.7121329607952165e-01  -1.7131166743437301e-01  -1.7129652697084619e-01  -1.7101643010352080e-01  -1.7026940268486612e-01  -1.6883530665232066e-01  -1.6649506628381774e-01  -1.6308040210808306e-01  -1.5841835251589501e-01  -1.5240424595853869e-01  -1.4503709800963249e-01  -1.3628900025587587e-01  -1.2639766104754963e-01  -1.1559571852684379e-01  -1.0406724496148129e-01  -9.2215552154787064e-02  -8.0242428574869573e-02  -6.8694668927955047e-02  -5.7598630875046915e-02  -4.7356071715894656e-02  -3.8097104215839603e-02  -2.9960222415711259e-02  -2.3021789056153073e-02  -1.2675804715005231e-02  -9.2158106494014558e-03  -6.8383293453534010e-03  -5.4748697355447842e-03  -4.9940710439613529e-03  -5.2103771285346443e-03  -6.0417581747160224e-03  -7.2081806703201724e-03  -8.6453655325745716e-03  -1.0093019596923091e-02  -1.1336306218548673e-02  -1.2180169471867071e-02  -1.2456156732366440e-02  -1.2006416243545410e-02  -1.0742501549431960e-02  -8.6158511227915884e-03  -5.6611336984705943e-03  -1.9519773370005958e-03  2.3626200327538237e-03  6.9889259137748136e-03  1.1793380838495281e-02  1.6469128593172642e-02  2.0762340520310767e-02  2.4501623700952182e-02  2.7486621340129309e-02  2.9684422569262289e-02  3.0969172438764632e-02  3.1376533110964132e-02  3.0944683285824972e-02  2.9725235586395421e-02  2.7792097360406397e-02  2.5268283225636078e-02  2.2269763599422138e-02  1.8921874245003203e-02  1.5343949350707138e-02  1.1746447513546917e-02  8.3409207945670805e-03  5.4039253642798671e-03  3.2042587474719070e-03  2.0002127854088030e-03  1.9786023843186827e-03  3.2146111360857161e-03  5.6410567764159343e-03  9.0317277401848802e-03  1.3037935898570333e-02  1.7216467890990610e-02  2.1141020161282404e-02  2.4400649547996277e-02  2.6676730103917624e-02  2.7739240289555878e-02  2.7594233646049567e-02  2.6264068939683020e-02  2.3802829960061105e-02  2.0544012900870875e-02  1.6561114317898772e-02  1.2027621056539288e-02  7.4117113455822274e-03  2.7082616939582129e-03  -1.5904712985834561e-03  -5.2337811857275365e-03  -7.8267044328833527e-03  -9.2531041002833509e-03  -9.2694162370903724e-03  -8.2067218270446916e-03  -6.1206396466372782e-03  -3.7061742880389152e-03  -1.1640993404012263e-03  0.0000000000000000e+00  0.0000000000000000e+00  0.0000000000000000e+00  0.0000000000000000e+00  0.0000000000000000e+00  0.0000000000000000e+00  0.0000000000000000e+00  0.0000000000000000e+00  0.0000000000000000e+00  4.2146074444795777e-03  8.7545752367595951e-03  1.3026324398973062e-02  1.6588804852931797e-02  1.9218809742988542e-02  2.0707977305417177e-02  2.0878027584272943e-02  1.9641905539283230e-02  1.7054771491760535e-02  1.3369557811796723e-02  9.0308539906037363e-03  4.6570424832508214e-03  9.3563325736622637e-04  -1.5072419372946263e-03  -2.2078149588237533e-03  -9.8427147161814156e-04  2.0451538578717308e-03  6.5174868010115542e-03  1.1917979400287063e-02  1.7681138409866081e-02  2.3295439666497157e-02  2.8318940525348901e-02  3.2388089367373238e-02  3.5181670969215144e-02  3.6412625279154461e-02  3.5868669140266256e-02  3.3366475492487620e-02  2.8924899152064230e-02  2.2766347401316039e-02  1.5357567066020698e-02  7.3835360809286505e-03  -3.5888897447487555e-04  -7.1174656988578899e-03  -1.2297096103930875e-02  -1.5131379693527833e-02  -1.6252719627861612e-02  -1.5326307151006229e-02  -1.3265461633232402e-02  -1.0561295659349487e-02  -7.7076712353119671e-03  -5.4492900658258412e-03  -3.9584377022338080e-03  -3.5428324546679158e-03  -4.3479203433654315e-03  -6.4705589931652197e-03  -9.9455228779283013e-03  -1.4776059238917134e-02  -2.0914101616563013e-02  -2.8218567533540642e-02  -3.6463576905072646e-02  -4.5359240588791760e-02  -5.4484468148571628e-02  -6.3630788907980199e-02  -7.2309893215739066e-02  -8.0264922526093088e-02  -8.7361185580156903e-02  -9.3555039625866102e-02  -9.8909955205414374e-02  -1.0357681931348128e-01  -1.0777885407912595e-01  -1.1173910213720628e-01  -1.1565067469919230e-01  -1.1962466005743556e-01  -1.2383319807520358e-01  -1.2831337813430629e-01  -1.3309311960336870e-01  -1.3814628982965582e-01  -1.4343519664767301e-01  -1.4888550027653880e-01  -1.5441734725736336e-01  -1.5981865066382347e-01  -1.6513905154420425e-01  -1.7014382210734849e-01  -1.7466856271338152e-01  -1.7838291061700182e-01  -1.8143109415809772e-01  -1.8339169715356368e-01  -1.8441847804820799e-01  -1.8456722431940331e-01  -1.8340391142576093e-01  -1.8135412148608110e-01  -1.7844789032305461e-01  -1.7490016279424417e-01  -1.7074604210223585e-01  -1.6607089460042973e-01  -1.6098131205203825e-01  -1.5560530064108696e-01  -1.4998070215939921e-01  -1.4413710597087573e-01  -1.3816037072826579e-01  -1.3205791780833170e-01  -1.2587386719140412e-01  -1.1962429822444477e-01  -1.1332351917238483e-01  -1.0698691584065206e-01  -1.0063152950530493e-01  -9.4260638536821165e-02  -8.7882463137195097e-02  -8.1503281256749410e-02  -7.5129097870069786e-02  -6.8762579970629720e-02  -6.2404414736343110e-02  -5.6059129445607703e-02  -4.9727439309259096e-02  -4.3411387659455958e-02  -3.7111322710727597e-02  -3.0828242554199956e-02  -2.4563614666070072e-02  -1.8316716171064121e-02  -1.2089116977083944e-02  -5.8803225941402339e-03  3.0914494377595270e-04  6.4789743491138647e-03  1.2629356297983176e-02  1.8759986009768512e-02  2.4870872506011579e-02  3.0961982277115444e-02  3.7033303450185684e-02  4.3084846112792230e-02  4.9116612200373395e-02  5.5128604712976821e-02  6.1120785378637861e-02  6.1120116743856874e-02  6.1118448621544974e-02  6.1115859765877308e-02  6.1112709905397439e-02  6.1109565084490378e-02  6.1106966638128896e-02  6.1105311296861753e-02  6.1104639741826977e-02  -1.7069069771927567e-01  -1.9311306057916636e-01  -3.0257574696013406e-01  -2.6224805199007212e-01  -2.6694043085519109e-01  -2.4572947247327395e-01  -2.2986741167466274e-01  -2.1537180979714154e-01  -2.0133190055257244e-01  -1.8841581342909028e-01  -1.7770277838505280e-01  -1.6704938361108829e-01  -1.5634233535114161e-01  -1.4532060538382924e-01  -1.3378009453343259e-01  -1.2196218641217695e-01  -1.0921255666693323e-01  -1.7013368281588320e-01  -1.6061028297206376e-01  -1.3208400179760882e-01  -8.6544704098756198e-02  -4.3396241961750376e-02  -1.5155897871709524e-02  -2.0820551276765803e-01  -1.5663430302482240e-01  -5.3465026454752422e-03  -7.7401282479888315e-03  -1.2460937445932295e-02  -1.7494387637746894e-01  -7.2405188417373166e-03  8.2636580985484438e-03  -9.6043127903273476e-02  2.5698355157162872e-02  -1.3480795039084964e-01  -1.1668709069784110e-01  3.1096202416632461e-02  -1.0075092239991386e-01  -8.1647488965514561e-02  -6.9161843179895030e-02  2.4224418043761766e-02  -6.7557770103469389e-02  -1.7069334756373944e-01  1.0308773451822436e-02  -2.4391463935842954e-02  -1.7163333252543217e-01  -5.1416191395186321e-02  1.7369309948737310e-03  -3.3237518351231332e-03  -3.3656455752441694e-02  -8.5471759088879204e-03  1.0502245367417225e-02  -1.5951938993492738e-02  -1.8341777271067555e-01  2.5684506099559481e-02  -1.5797969193323720e-02  -1.0236671396663068e-02  -1.8220108046816816e-01  -1.7236051815274400e-01  1.0833877466950213e-02  2.5465091133232837e-02  4.0964541676918511e-03  1.8899755763236565e-02  -7.9966429597002082e-03  1.4720179771381032e-02  2.6630339609188760e-04  -1.5305348996773588e-01  3.1140062617383373e-02  3.4008727506475080e-02  -1.3486764414974353e-01  -2.7637927065332046e-01  -3.0437570204182535e-01  -1.1663994058673974e-01  2.0913733133393821e-02  -8.8135207887312297e-03  -9.1937971553917586e-02  2.9081935913470867e-04  -5.9405705044830240e-02  -1.0483141144433977e-03  -2.7695254096847498e-02  1.0672275645791781e-02  -9.0861520522420459e-03  2.7785920054612747e-02  9.6995181755506754e-03  2.0355060706148554e-02  5.6069367894213074e-02  1.8561203538897079e-03  3.5416564878170000e-02  -1.7082519758390513e-01  1.8551274758422893e-02  -7.6873552751319102e-03  -1.8054054060238775e-01  -1.7101164480675585e-01  -1.7909226591205918e-01  -1.4560129246745626e-01  -1.6363917143162443e-01  -1.0376317421596086e-01  -7.8620528083737054e-02  -4.5830620356846222e-02  -5.0000630746275546e-02  -9.0127802926964665e-02  -1.0870544769758474e-01  -1.2521928811831376e-01  -6.2604845401171933e-03  -2.4943744931066332e-02  3.6338617418562411e-02  9.4737122777739310e-03  -4.2127669185003727e-02  2.7880895690640287e-02  3.9962433847323529e-02  1.9049227800433815e-02  3.9447273729004530e-03  -5.9357747602946626e-02  4.3583706607722549e-03  5.6039760368761737e-02  1.7551524726094864e-02  -7.4392537314889887e-02  2.9155549002613457e-02  3.0359034654469402e-02  -8.3216858692313888e-03  1.7702645333775715e-02  -8.9136961164785949e-02  -4.4379273291839219e-04  -1.1711130846937881e-02  -1.0683154680905915e-02  -1.0278386620468534e-01  -5.6833149286267650e-03  -1.0741500160065648e-03  -1.1559011556916143e-01  -1.2789987824569235e-01  -1.3982129684201847e-01  -1.5052470902508322e-01  -1.6194611886293084e-01  -1.7247586809865095e-01  -1.8330283940077940e-01  -1.9628014188296383e-01  -1.7078840599568326e-01  -2.0980522035601945e-01  -2.2402881864318924e-01  -2.3917300848165882e-01  -1.6734450243177262e-01  -2.5644824975047620e-01  -1.1093566082662930e-01  -1.4823127063799404e-01  -6.5548731718852268e-02  -2.7058863673915343e-02  5.6460947365362155e-02  -2.3538342299677653e-01  4.2677282872562866e-03  4.6454841635114007e-02  1.1458382601662230e-02  -1.7092759897207796e-01  -1.3542065964096087e-03  5.6597345585214252e-02  -1.7105307421978300e-01  -1.7076328233399912e-01  -1.7061735176118475e-01  -1.7063679139838553e-01  -1.7042976539016980e-01  -1.7061852781291545e-01  -1.7027599136815996e-01  -1.7051884677688342e-01  -1.6998897524657891e-01  -1.7007632142463391e-01  -1.6935534135615760e-01  -1.6910102972169208e-01  -1.6826338901648591e-01  -1.6774355403461017e-01  -1.6690543550152012e-01  -1.6643252056483879e-01  -1.6568290363494398e-01  -1.6553852430867355e-01  -1.6510896935781036e-01  -1.6551839725648901e-01  -1.6509660504382942e-01  -1.6636618254671118e-01  -1.6506226065726445e-01  -1.6512003682445683e-01  -1.6666578747915720e-01  -1.6824171456518988e-01  -1.6556516659697673e-01  -1.6556925072943665e-01  -1.6655102943041719e-01  -1.6637029432325490e-01  -1.6799086847425324e-01  -1.6728033751255342e-01  -1.6955138260562186e-01  -1.6801897637599744e-01  -1.7083010563350931e-01  -1.6738629943278679e-01  -1.7105014860609896e-01  -1.6679911812407114e-01  -1.6997780100693857e-01  -1.6428742365214075e-01  -1.6698744436859647e-01  -1.5853528626978236e-01  -1.6144914735047419e-01  -1.5300369958274682e-01  -1.5373181385496287e-01  -1.4458900227939833e-01  -1.4367255267044493e-01  -1.3467953654454032e-01  -1.3175028463284441e-01  -1.2344491782600313e-01  -1.1851153910908019e-01  -1.6848957375977902e-01  -1.7095863305589906e-01  -1.1157598846702461e-01  -1.0408426727264029e-01  -9.9747527580697784e-02  -9.0465243780399870e-02  -8.8601551185257074e-02  -7.8285104361745975e-02  -7.8205296017219761e-02  -6.6670159749234056e-02  -6.8972132825399060e-02  -5.6482026655616836e-02  -1.6479737772780256e-01  -6.0872811756640062e-02  -4.7785084310774738e-02  -5.3891055729685639e-02  -4.0656998358387160e-02  -4.8043641997650086e-02  -3.4979445587747814e-02  -1.7078356953894289e-01  -1.7420873511757881e-01  -1.6883855312902193e-01  -4.2895338502757875e-02  -3.0486793894070344e-02  -1.7103078112339998e-01  -3.8067400575153530e-02  -2.6965337589957238e-02  -3.4100150544078701e-02  -2.4290872039057367e-02  -3.0335762512909543e-02  -2.2182463947010567e-02  -1.6505157135043291e-01  -2.7238744136292996e-02  -2.0541468350435192e-02  -2.3715167949927219e-02  -1.9001444887407262e-02  -2.0589224327335190e-02  -1.7598244985808715e-02  -1.6753254435440079e-01  -1.6059702349954236e-01  -1.7576472257727970e-02  -1.6052489069397553e-02  -1.7325667406830525e-01  -1.7805683976053638e-01  -1.6979577265788837e-01  -1.4308288167656039e-01  -1.4623833682095697e-02  -1.4349937015382376e-02  -1.1691165463145631e-02  -1.2406718826220988e-02  -8.9621270368414122e-03  -1.0309430086954660e-02  -2.3502026585022536e-02  -1.5757809481638466e-02  -1.6379444986678419e-02  -4.4376302045051913e-02  -6.5757654455196367e-03  -8.0776137352888567e-03  -1.1857466028606234e-02  -9.5087122647881470e-03  -5.9699489581719750e-03  -6.8889945075331742e-03  -4.0919063796487605e-03  -4.1438928745722676e-03  -2.5972708237702326e-03  -1.5240495933981385e-03  -1.6437070901666633e-03  6.2117209882816356e-04  -1.2988809345201833e-03  2.2467594459411691e-03  -1.6773454654139218e-03  3.2150579058215505e-03  -2.3830286539817907e-03  4.0045912568586178e-03  -3.3933619115637790e-03  4.1889313079195951e-03  -4.1967546439034276e-03  4.2621502806121161e-03  -5.0214171326067800e-03  4.4243900792034600e-03  -8.0797363678339618e-02  -1.1596346465157015e-01  -4.7604830953797894e-03  4.9343118724036010e-03  -3.2784004448261433e-03  5.9844196213542956e-03  -1.6961247673096366e-01  -8.2072445092312512e-04  7.5531904314299347e-03  -1.5181093902047813e-01  -1.7133469171945664e-01  -1.7564111198409446e-01  -1.8026843572132284e-01  -1.8415945764726452e-01  -1.8675086934901092e-01  -1.9144114866059520e-01  -1.9381883786224621e-01  -1.9963243269926292e-01  -2.0111121707164273e-01  -2.0861604993745106e-01  -2.0817052532228539e-01  -2.1721238828908560e-01  -2.1430689542317286e-01  -2.2468016462570894e-01  -2.1964584815491894e-01  -2.3170523271899174e-01  -2.2431181697318969e-01  -2.3330247883504718e-01  -2.2489996833041817e-01  -2.3381612287600559e-01  -2.2642895766515581e-01  -2.3287465886253594e-01  -2.2537390222208989e-01  -2.3053176446667198e-01  -2.2326991823523118e-01  -2.2729222901439292e-01  -2.2047822185063479e-01  -2.2352973720272584e-01  -2.1714134168186469e-01  -2.1909983149797463e-01  -2.1378280619149329e-01  -2.1082277556046394e-01  -2.1346684457195400e-01  -2.0760652021370044e-01  -2.0960758211195862e-01  -2.0416661889369345e-01  -2.0579078417343780e-01  -2.0061954461722784e-01  -2.0206469545706485e-01  -2.0249374474657100e-01  -1.9701820722455118e-01  -1.9769127955730756e-01  -1.9309431982274886e-01  -1.9212061505342934e-01  -1.8852419069805626e-01  -1.8916892177609693e-01  -1.8487493692174387e-01  -1.8510167896897986e-01  -1.8113605126358595e-01  -1.9567467257384502e-01  -1.8105999707850570e-01  -1.7731325894664229e-01  -1.7702848580142680e-01  -1.7339075313221136e-01  -1.7350285708661545e-01  -1.6970401925482093e-01  -1.6967159427180908e-01  -1.6598807100575649e-01  -2.3594253747064958e-01  -2.1583678852430921e-01  -2.1732053771345608e-01  -2.4145703974712721e-01  -1.6578748235001270e-01  -1.6220673617917514e-01  -1.6230326866028869e-01  -1.5856183817945890e-01  -1.5837594696556095e-01  -1.5479330179970605e-01  -1.5448073448352684e-01  -1.5096037269561888e-01  -1.5123635550528289e-01  -1.4745325235357745e-01  -1.4702620905087618e-01  -1.4359625575430754e-01  -1.8748026921782021e-01  -1.4305454035381310e-01  -1.3973274271067246e-01  -2.3820269956679163e-01  -1.9976104020439434e-01  -1.7306036269931502e-01  -2.2992891839860338e-01  -1.3913260132549754e-01  -1.3574895768060721e-01  -1.3659343148504932e-01  -1.3238464248959256e-01  -1.3182347185339610e-01  -1.2831773343030939e-01  -1.2888473444069515e-01  -1.2482701587063005e-01  -1.2423993187638868e-01  -1.2076620244862958e-01  -2.1093503526852436e-01  -1.2016541890725299e-01  -1.1663163823645588e-01  -1.4751525873013824e-01  -1.8835745437517784e-01  -8.8846551000768076e-02  -2.0194594055253065e-01  -1.1725368692235903e-01  -1.1310509173995130e-01  -1.1247954051468609e-01  -1.0895683868685858e-01  2.3599057941797808e-03  9.4358852499064789e-03  6.4038831646913751e-03  1.1670819895470251e-02  1.0972240114410748e-02  1.3955970520143217e-02  -1.0816214544364970e-01  -1.0468967399411970e-01  -5.5686083693055423e-02  -1.0537460831516868e-01  -1.0113700128221143e-01  -1.0057543336208412e-01  -9.6924591477386329e-02  -1.7101024323342753e-01  -1.8370653303040188e-01  -1.7335279711292365e-01  4.8369299569098780e-03  1.5589697432936764e-02  1.6079755442798726e-02  -1.2754621846114776e-02  1.3439405681321976e-02  1.4519033589841806e-02  1.4198568239825267e-02  1.7936063956437986e-02  1.3860820534190724e-02  1.9395566727200886e-02  1.3582338962151524e-02  2.0539907135986763e-02  1.3614245907777173e-02  2.1297805520620664e-02  1.3931874115310354e-02  2.1809197925769821e-02  1.4658461841272074e-02  2.2033412588523919e-02  1.5542553655542897e-02  2.1710507844816530e-02  1.6428429087142930e-02  2.0732761028510009e-02  1.6986788231999072e-02  1.9086605747538579e-02  1.7112627853076590e-02  1.6801393433563794e-02  1.6545800955697857e-02  1.3915209499075336e-02  1.5411494961948210e-02  -9.63