<?xml version="1.0"?>
<VTKFile type="UnstructuredGrid"  version="0.1"  >
<UnstructuredGrid>
<Piece  NumberOfPoints="2945" NumberOfCells="5525">
<Points>
<DataArray  type="Float64"  NumberOfComponents="3"  format="ascii">0 0.1 0  0.95 0.1 0  1 0.1 0  1 0 0  1.5 0 0  3 0 0  3 0.3 0  0 0.3 0  0.0197424558707114 0.1 0  0.03915669042224804 0.1 0  0.05824816022699029 0.1 0  0.07702223050332387 0.1 0  0.09548417327144595 0.1 0  0.1136391897583987 0.1 0  0.1314923700144587 0.1 0  0.1490487330862866 0.1 0  0.1663132263225292 0.1 0  0.1832906857273058 0.1 0  0.1999858946008978 0.1 0  0.216403545770297 0.1 0  0.2325482404045023 0.1 0  0.2484245348165176 0.1 0  0.2640368740372501 0.1 0  0.2793896589642241 0.1 0  0.2944872056237027 0.1 0  0.3093337469555254 0.1 0  0.3239334613687816 0.1 0  0.3382904528528069 0.1 0  0.3524087553122972 0.1 0  0.3662923366391824 0.1 0  0.3799451014768399 0.1 0  0.393370886920506 0.1 0  0.4065734648871676 0.1 0  0.419556546320114 0.1 0  0.4323237821343415 0.1 0  0.4448787573056132 0.1 0  0.4572250047274954 0.1 0  0.4693659926332938 0.1 0  0.4813051343276231 0.1 0  0.4930457849308193 0.1 0  0.5045912455271677 0.1 0  0.5159447600209797 0.1 0  0.5271095174127136 0.1 0  0.5380886618453393 0.1 0  0.5488852725463512 0.1 0  0.5595023868312478 0.1 0  0.5699429904313016 0.1 0  0.5802100167387366 0.1 0  0.5903063508274641 0.1 0  0.6002348329443006 0.1 0  0.6099982499579832 0.1 0  0.6195993483501782 0.1 0  0.6290408246013842 0.1 0  0.6383253354321616 0.1 0  0.6474554910757137 0.1 0  0.6564338522440513 0.1 0  0.6652629482939147 0.1 0  0.6739452579188948 0.1 0  0.6824832240165607 0.1 0  0.6908792415022103 0.1 0  0.6991356755989045 0.1 0  0.7072548438546967 0.1 0  0.7152390281534421 0.1 0  0.7230904746196039 0.1 0  0.7308113906759266 0.1 0  0.7384039435269326 0.1 0  0.7458702676581656 0.1 0  0.7532124631720397 0.1 0  0.7604325921167397 0.1 0  0.7675326856666862 0.1 0  0.7745147374421916 0.1 0  0.7813807123989068 0.1 0  0.7881325374362798 0.1 0  0.7947721131625659 0.1 0  0.8013013031866276 0.1 0  0.8077219449067021 0.1 0  0.8140358419942376 0.1 0  0.8202447685401882 0.1 0  0.8263504700910924 0.1 0  0.8323546643163114 0.1 0  0.8382590362474568 0.1 0  0.8440652473522128 0.1 0  0.8497749272799842 0.1 0  0.8553896837646281 0.1 0  0.8609110933285474 0.1 0  0.866340708855119 0.1 0  0.8716800550492284 0.1 0  0.8769306339052932 0.1 0  0.8820939206038667 0.1 0  0.8871713655604893 0.1 0  0.8921643975475726 0.1 0  0.8970744196575535 0.1 0  0.9019028106970642 0.1 0  0.9066509291259979 0.1 0  0.9113201098984042 0.1 0  0.9159116634553873 0.1 0  0.9204268818729691 0.1 0  0.9248670319440222 0.1 0  0.9292333656649013 0.1 0  0.9335271075812669 0.1 0  0.9377494640511216 0.1 0  0.941901623463222 0.1 0  0.9459847526686701 0.1 0  0.9538461538461205 0.1 0  0.9576923076922409 0.1 0  0.9615384615384381 0.1 0  0.9653846153846337 0.1 0  0.9692307692307542 0.1 0  0.9730769230768747 0.1 0  0.9769230769229952 0.1 0  0.9807692307691157 0.1 0  0.9846153846152361 0.1 0  0.9884615384614317 0.1 0  0.9923076923076356 0.1 0  0.9961538461538395 0.1 0  1 0.09591793123533533 0  1 0.09133596463859224 0  1 0.08619288104391448 0  1 0.08041996484521211 0  1 0.07394008421771697 0  1 0.06666666567302955 0  1 0.05850252932209174 0  1 0.04933859630113544 0  1 0.03905242821848202 0  1 0.02750659386753798 0  1 0.01454683679239736 0  1.015625 0 0  1.03125 0 0  1.046875 0 0  1.0625 0 0  1.078125 0 0  1.09375 0 0  1.109375 0 0  1.125 0 0  1.140625 0 0  1.15625 0 0  1.171875 0 0  1.1875 0 0  1.203125 0 0  1.21875 0 0  1.234375 0 0  1.25 0 0  1.265625 0 0  1.28125 0 0  1.296875 0 0  1.3125 0 0  1.328125 0 0  1.34375 0 0  1.359375 0 0  1.375 0 0  1.390625 0 0  1.40625 0 0  1.421875 0 0  1.4375 0 0  1.453125 0 0  1.46875 0 0  1.484375 0 0  1.515920751924515 0 0  1.531989369316721 0 0  1.54820720925872 0 0  1.564575665560501 0 0  1.581096138674279 0 0  1.597770029901263 0 0  1.614598783332311 0 0  1.631583831055205 0 0  1.64872661129721 0 0  1.666028606716533 0 0  1.683491276608443 0 0  1.701116134125304 0 0  1.718904673324128 0 0  1.736858414799339 0 0  1.754978895814663 0 0  1.773267661782904 0 0  1.791726281103402 0 0  1.810356325314689 0 0  1.8291593848892 0 0  1.848137076690385 0 0  1.867291007717254 0 0  1.886622833871288 0 0  1.90613418642363 0 0  1.925826753299799 0 0  1.945702199101513 0 0  1.96576223584749 0 0  1.986008569283268 0 0  2.006442931928877 0 0  2.02706707547783 0 0  2.047882750887917 0 0  2.06889175187935 0 0  2.090095860038271 0 0  2.111496891648636 0 0  2.133096679109554 0 0  2.154897066851056 0 0  2.176899916687499 0 0  2.199107102752146 0 0  2.22152053937028 0 0  2.244142122958061 0 0  2.266973806444078 0 0  2.290017523268154 0 0  2.313275249499252 0 0  2.336748971745516 0 0  2.360440702338606 0 0  2.384352453384031 0 0  2.408486280477412 0 0  2.432844240041185 0 0  2.457428414757088 0 0  2.482240901796653 0 0  2.507283830121838 0 0  2.532559332080812 0 0  2.558069568787417 0 0  2.583816724966441 0 0  2.60980299606584 0 0  2.636030600971886 0 0  2.662501790984011 0 0  2.689218818279327 0 0  2.716183964547616 0 0  2.743399548861297 0 0  2.77086788244719 0 0  2.798591312896326 0 0  2.826572223178268 0 0  2.854812990138617 0 0  2.883316031690714 0 0  2.912083780657189 0 0  2.941118704633482 0 0  2.970423276998917 0 0  3 0.02999999999994495 0  3 0.05999999999987042 0  3 0.089999999999783 0  3 0.119999999999701 0  3 0.149999999999619 0  3 0.179999999999692 0  3 0.2099999999997737 0  3 0.2399999999998511 0  3 0.2699999999999185 0  2.970138294777171 0.3 0  2.940375666438236 0.3 0  2.910711782853056 0.3 0  2.881146331305122 0.3 0  2.851678975030285 0.3 0  2.822309388626621 0.3 0  2.793037250095074 0.3 0  2.76386223529133 0.3 0  2.734784017903872 0.3 0  2.705802289276642 0.3 0  2.676916713794697 0.3 0  2.648126987654635 0.3 0  2.619432780406184 0.3 0  2.590833779385199 0.3 0  2.562329669847737 0.3 0  2.533920134950189 0.3 0  2.505604855727852 0.3 0  2.477383539822502 0.3 0  2.449255847639465 0.3 0  2.421221492569094 0.3 0  2.393280152486815 0.3 0  2.36543151914496 0.3 0  2.337675285481809 0.3 0  2.310011142385583 0.3 0  2.282438797441587 0.3 0  2.254957931061538 0.3 0  2.227568248063605 0.3 0  2.200269436651085 0.3 0  2.173061204949961 0.3 0  2.145943251515011 0.3 0  2.118915272469994 0.3 0  2.091976978084957 0.3 0  2.065128060700849 0.3 0  2.038368218849433 0.3 0  2.01169717777258 0.3 0  1.985114624111908 0.3 0  1.958620267850966 0.3 0  1.93221382054972 0.3 0  1.905894991850698 0.3 0  1.879663489459713 0.3 0  1.853519019126419 0.3 0  1.827461291053897 0.3 0  1.801490031354372 0.3 0  1.775604937580312 0.3 0  1.74980572560258 0.3 0  1.724092118631866 0.3 0  1.698463829173586 0.3 0  1.672920575782554 0.3 0  1.647462076974085 0.3 0  1.622088043536933 0.3 0  1.5967981978949 0.3 0  1.571592267767068 0.3 0  1.546469970305736 0.3 0  1.521431023814044 0.3 0  1.496475156230927 0.3 0  1.471602093687753 0.3 0  1.446811560490646 0.3 0  1.422103279101731 0.3 0  1.397476971708191 0.3 0  1.37293238939876 0.3 0  1.348469231419202 0.3 0  1.324087248732772 0.3 0  1.299786165921677 0.3 0  1.275565710847046 0.3 0  1.251425617644257 0.3 0  1.227365618676339 0.3 0  1.203385446174014 0.3 0  1.179484853067473 0.3 0  1.155663548773374 0.3 0  1.131921292279077 0.3 0  1.108257802159295 0.3 0  1.084672829009693 0.3 0  1.061166115303374 0.3 0  1.037737392995421 0.3 0  1.01438640299116 0.3 0  0.991112899770314 0.3 0  0.9679166155523955 0.3 0  0.944797284182564 0.3 0  0.921754678526042 0.3 0  0.8987885143602501 0.3 0  0.8758985548820624 0.3 0  0.8530845484099929 0.3 0  0.8303462351786988 0.3 0  0.8076833651172373 0.3 0  0.7850956864865304 0.3 0  0.7625829601354557 0.3 0  0.7401449314598274 0.3 0  0.717781337993959 0.3 0  0.6954919649675473 0.3 0  0.6732765357561226 0.3 0  0.6511348120768439 0.3 0  0.6290665642016573 0.3 0  0.6070715355430467 0.3 0  0.5851494825775325 0.3 0  0.5633001690203812 0.3 0  0.5415233562273221 0.3 0  0.5198187909431873 0.3 0  0.4981862401387795 0.3 0  0.4766254686134248 0.3 0  0.4551362360485234 0.3 0  0.4337182975262159 0.3 0  0.4123714223228037 0.3 0  0.3910953802377493 0.3 0  0.3698899313205595 0.3 0  0.3487548463710963 0.3 0  0.3276898864081783 0.3 0  0.3066948129116018 0.3 0  0.2857694003037476 0.3 0  0.2649134227095047 0.3 0  0.2441266417321288 0.3 0  0.2234088223399122 0.3 0  0.2027597568977288 0.3 0  0.1821792020676698 0.3 0  0.1616669305402443 0.3 0  0.1412227158799362 0.3 0  0.12084633013886 0.3 0  0.1005375673448281 0.3 0  0.08029618164595353 0.3 0  0.06012194778526769 0.3 0  0.04001466495039718 0.3 0  0.01997408913631205 0.3 0  0 0.2800000000000553 0  0 0.2600000000001105 0  0 0.2400000000001658 0  0 0.2200000000002211 0  0 0.2000000000002764 0  0 0.1800000000002244 0  0 0.1600000000001691 0  0 0.140000000000115 0  0 0.1200000000000564 0  1.133778471000506 0.01219539743990768 0  1.003741919047894 0.09354664821474232 0  0.9559421147150347 0.1035858189992458 0  0.9313792160389045 0.1037365237938103 0  0.9788461538460573 0.1033060829993555 0  0.9090102438250753 0.1037269304984056 0  0.8846304212778655 0.1043349840723655 0  0.8581503885465881 0.104741932962923 0  0.8286416220145676 0.1052762843984476 0  0.7982741772533339 0.1053575624517407 0  0.7708789559342691 0.1060290465840416 0  0.741870349714261 0.1078220590984258 0  0.7112469360040695 0.10685702926368 0  0.6783901541417233 0.1079959711853378 0  0.642884733623195 0.1075561996086514 0  0.6056235042367955 0.1085956039602543 0  0.5647007593786924 0.1083187281660325 0  1.1953125 0.01353164693413185 0  1.258148737344733 0.01268350115427042 0  1.320087046516829 0.01426312402966312 0  1.383495130751951 0.01432665475473204 0  1.4453125 0.01315663539200989 0  1.50886768312388 0.01395488397722681 0  0.9942307692307371 0.103330866937657 0  1.119309781943483 0.2802014914557878 0  1.572831235329714 0.01707210522554785 0  1.637611634353954 0.01209340368483431 0  1.709661292005932 0.0146870244871893 0  1.006561890631532 0.07068055446055937 0  1.784793444007901 0.01499371444634687 0  1.855459587353174 0.0
[...]
<PointData  Scalars="pressure"> 
<DataArray  type="Float64"  Name="pressure"  format="ascii">3.4001548343637049e-02  -2.8779491556463110e-01  -2.8123900806284080e-01  -2.3719469289592141e-01  -6.7466254984477406e-02  0.0000000000000000e+00  0.0000000000000000e+00  3.4018482074086101e-02  2.8078829527911058e-02  2.2254403992290749e-02  1.6526587552048000e-02  1.0893751688319171e-02  5.3542633667345227e-03  -9.3425921549443168e-05  -5.4508922641953407e-03  -1.0719680645077789e-02  -1.5901262774770789e-02  -2.0997215072998527e-02  -2.6008984417876996e-02  -3.0937995691154841e-02  -3.5785742999187367e-02  -4.0553616586880253e-02  -4.5243075762407416e-02  -4.9855480009712121e-02  -5.4392283937566753e-02  -5.8854786738601832e-02  -6.3244431900448025e-02  -6.7562492227951063e-02  -7.1810461995560612e-02  -7.5989562333351718e-02  -8.0100958303986780e-02  -8.4146353153809944e-02  -8.8126846684217233e-02  -9.2043846919554057e-02  -9.5898525312018812e-02  -9.9692386839377256e-02  -1.0342658808790310e-01  -1.0710258767857966e-01  -1.1072154513239535e-01  -1.1428465194995015e-01  -1.1779368047279570e-01  -1.2124966720138980e-01  -1.2465386448951096e-01  -1.2800765926829269e-01  -1.3131252600147097e-01  -1.3456958755429399e-01  -1.3778033870333192e-01  -1.4094600813193667e-01  -1.4406815288695293e-01  -1.4714800677372950e-01  -1.5018694049764328e-01  -1.5318628466126558e-01  -1.5614758353436434e-01  -1.5907204028814798e-01  -1.6196133104545712e-01  -1.6481663095088717e-01  -1.6763944401214242e-01  -1.7043146568733139e-01  -1.7319378082520767e-01  -1.7592794271480613e-01  -1.7863607582657459e-01  -1.8131811600731829e-01  -1.8397682060253628e-01  -1.8661348565083111e-01  -1.8922919131448815e-01  -1.9182684632459351e-01  -1.9440649786990669e-01  -1.9696888090328596e-01  -1.9951754585409320e-01  -2.0205355265497352e-01  -2.0457904738306748e-01  -2.0709421839397496e-01  -2.0959981382151646e-01  -2.1210079098729789e-01  -2.1459672356244239e-01  -2.1708994069770199e-01  -2.1958214351238825e-01  -2.2207502274954996e-01  -2.2457023288442629e-01  -2.2707046441177439e-01  -2.2957676666652824e-01  -2.3209098125299879e-01  -2.3461678090924629e-01  -2.3715617124803853e-01  -2.3971021726932248e-01  -2.4228279184575224e-01  -2.4487720753150130e-01  -2.4749502923319863e-01  -2.5013877768469495e-01  -2.5281747626198564e-01  -2.5553011928168112e-01  -2.5828342022900741e-01  -2.6107981459870672e-01  -2.6393692908856287e-01  -2.6684209470808729e-01  -2.6975012765242284e-01  -2.7348016453212431e-01  -2.7255567883038972e-01  -2.9557954124430602e-01  -2.6177040770792431e-01  -2.8975577090928140e-01  -2.8821635894759629e-01  -2.9425596091132450e-01  -3.0235718777542775e-01  -3.1387047235091864e-01  -3.1883534879422454e-01  -3.2003111787726923e-01  -3.1774257743489759e-01  -3.1286238534298699e-01  -3.0599095629966078e-01  -2.9783500265637125e-01  -2.8893152414093132e-01  -2.7973783216426074e-01  -2.7215048327669061e-01  -2.5567474269829238e-01  -2.7170314377813970e-01  -2.5245343054820885e-01  -2.4637839029774453e-01  -2.4221956568183473e-01  -2.3971004304811730e-01  -2.3797975388889858e-01  -2.3672070087944089e-01  -2.3592126506732702e-01  -2.3562790031557254e-01  -2.3590950843390318e-01  -2.3675124514111268e-01  -2.3776593686599126e-01  -2.3874194180868191e-01  -2.3944292802848186e-01  -2.3994768187367563e-01  -2.4023906556223126e-01  -2.4015611828957747e-01  -2.3943160828107918e-01  -2.3786269342328939e-01  -2.3528340078860938e-01  -2.3154220022038405e-01  -2.2652737395951228e-01  -2.2022254530556068e-01  -2.1265651063840346e-01  -2.0391318319103233e-01  -1.9415170447499513e-01  -1.8359582359096940e-01  -1.7249752744081426e-01  -1.6107641342323034e-01  -1.4959954228561409e-01  -1.3842504817043735e-01  -1.2754186784048355e-01  -1.1741715923090615e-01  -1.0802786143086666e-01  -9.9564270177809180e-02  -9.2043168585991028e-02  -8.5662462759727970e-02  -8.0275829690086856e-02  -7.5936130572258051e-02  -7.2566344008324332e-02  -7.0102048770885481e-02  -6.8445116344215726e-02  -6.7033601032283396e-02  -6.6994174702254272e-02  -6.7185796499503278e-02  -6.7380901508545143e-02  -6.7470147930170810e-02  -6.7129683737498669e-02  -6.6270537451832451e-02  -6.4592095576057343e-02  -6.2042072781102492e-02  -5.8547505506546145e-02  -5.4099522438210104e-02  -4.8769518229176023e-02  -4.2684286899099318e-02  -3.6064517276156616e-02  -2.9148370694159636e-02  -2.2211551572924836e-02  -1.5521578903419804e-02  -9.4167609279976212e-03  -3.9314330803974550e-03  5.8045119612061514e-04  4.1207494798547028e-03  6.6310610766163076e-03  8.0848633335127880e-03  8.5543393465686880e-03  8.0890432728597094e-03  6.8054954329184701e-03  4.8381612456400748e-03  2.2373770173839355e-03  -8.1330219140113974e-04  -4.1618027514594407e-03  -7.6505324673886146e-03  -1.1028860587794653e-02  -1.4044670930053217e-02  -1.6422373875294327e-02  -1.7914670214116371e-02  -1.8294553453415213e-02  -1.7422927511176377e-02  -1.5279673799222142e-02  -1.1946832166532580e-02  -7.6633769310026712e-03  -2.7553207994284053e-03  2.3815294251120700e-03  7.3499902354524620e-03  1.1773252978010341e-02  1.5365372653577554e-02  1.7921195946673046e-02  1.9367512399349512e-02  1.9712550789412243e-02  1.9046777864805020e-02  1.7489493342424264e-02  1.5205517808319424e-02  1.2448379205527318e-02  9.2721025655727804e-03  5.9988416273739145e-03  2.7447772889446342e-03  -3.5438281155284796e-04  -3.0030422242445123e-03  -5.1347770527259799e-03  -6.5848951368052931e-03  -7.2935614804328485e-03  -7.2298617895865929e-03  -6.4865421713535838e-03  -5.2487803420586910e-03  -3.7735318920356833e-03  -2.2818290558759649e-03  -1.0405341856435739e-03  -1.4150846316833776e-04  0.0000000000000000e+00  0.0000000000000000e+00  0.0000000000000000e+00  0.0000000000000000e+00  0.0000000000000000e+00  0.0000000000000000e+00  0.0000000000000000e+00  0.0000000000000000e+00  0.0000000000000000e+00  1.2777033785687491e-03  3.0777031183741544e-03  5.1779630012509228e-03  7.3726765942995955e-03  9.4572439489299023e-03  1.1167581108052655e-02  1.2255691937818732e-02  1.2501666253179070e-02  1.1739956186031688e-02  9.9001915354799651e-03  7.0257470026774812e-03  3.3061464665732399e-03  -9.3388626132989109e-04  -5.2710419315449416e-03  -9.2164305125019223e-03  -1.2318407401039082e-02  -1.4223037611126730e-02  -1.4719838099755096e-02  -1.3781954321462219e-02  -1.1543357596750793e-02  -8.2454961793771361e-03  -4.1913168378023878e-03  3.2316266400200084e-04  4.9963379971947426e-03  9.5921795319936325e-03  1.3831251602399468e-02  1.7409183427882610e-02  2.0040317879097030e-02  2.1319811077822992e-02  2.0923246447764020e-02  1.8519692976099452e-02  1.3979352242093722e-02  7.1861537684969300e-03  -1.2485804068327966e-03  -1.1113312338294934e-02  -2.1505196446500362e-02  -3.1387744377502240e-02  -3.9950657665102966e-02  -4.6464648264443749e-02  -5.0783560862663522e-02  -5.2998897274516170e-02  -5.3371479564748567e-02  -5.2761279999942366e-02  -5.1732720700129346e-02  -5.0882207025014239e-02  -5.0636906276084206e-02  -5.1307760049274752e-02  -5.3071583297547020e-02  -5.5964099887139691e-02  -6.0051911174941512e-02  -6.5348848695880646e-02  -7.1766888969729742e-02  -7.9322563577751026e-02  -8.7702971437175217e-02  -9.6797785280069534e-02  -1.0633692785414180e-01  -1.1606893203219869e-01  -1.2571254335503232e-01  -1.3505616895340256e-01  -1.4391792587959509e-01  -1.5221352431717888e-01  -1.5979843028207105e-01  -1.6672944348517144e-01  -1.7303808979258603e-01  -1.7874851290252619e-01  -1.8394836094829936e-01  -1.8874670461205656e-01  -1.9324139634455315e-01  -1.9749887991517387e-01  -2.0157063443999326e-01  -2.0537649509605299e-01  -2.0898766699710497e-01  -2.1229277258709872e-01  -2.1512841013670178e-01  -2.1721860243710189e-01  -2.1867917606091047e-01  -2.1918614003004125e-01  -2.1883024751700217e-01  -2.1771363778439590e-01  -2.1548249376061387e-01  -2.1250673488684474e-01  -2.0882709225704882e-01  -2.0462001889030332e-01  -1.9992703165614140e-01  -1.9481987118001837e-01  -1.8938836765437916e-01  -1.8373169935495942e-01  -1.7788383828090487e-01  -1.7186807657648442e-01  -1.6575174601027018e-01  -1.5954161820723120e-01  -1.5327146705669131e-01  -1.4695452936173237e-01  -1.4060174085947919e-01  -1.3422525014242184e-01  -1.2783759380046422e-01  -1.2144262906644991e-01  -1.1504572122774154e-01  -1.0865227082429962e-01  -1.0226675619081876e-01  -9.5891499802144106e-02  -8.9526899655555200e-02  -8.3176554610601236e-02  -7.6841107991369673e-02  -7.0522074154985792e-02  -6.4219876068238299e-02  -5.7935167285478414e-02  -5.1669277999946875e-02  -4.5421484411533812e-02  -3.9193179522738320e-02  -3.2983878551781837e-02  -2.6794040041192371e-02  -2.0623932155976236e-02  -1.4473362030972627e-02  -8.3425946895103933e-03  -2.2316146660772041e-03  3.8595566531992036e-03  9.9309159374639973e-03  1.5982479942052891e-02  2.2014256732466726e-02  2.8026254297175923e-02  3.4018436226032317e-02  3.4017745441834654e-02  3.4016010433833975e-02  3.4013309419237976e-02  3.4010018843510542e-02  3.4006733512293545e-02  3.4004022584847977e-02  3.4002300809850054e-02  3.4001607232325690e-02  -2.3600810042872278e-01  -2.5550999361831928e-01  -3.1018983825851171e-01  -2.7957637637932403e-01  -2.9809745565428319e-01  -2.6561453886338782e-01  -2.5163426008638895e-01  -2.3854956840061342e-01  -2.2561504069509714e-01  -2.1350489763745104e-01  -2.0331740555012986e-01  -1.9307275474049473e-01  -1.8267989417296948e-01  -1.7189595444762579e-01  -1.6053255248862533e-01  -1.4883858820197482e-01  -1.3617672300125969e-01  -2.1650530784751226e-01  -1.7825500455460866e-01  -1.3372645881449646e-01  -9.5968710756626996e-02  -7.4437491041268289e-02  -6.7186799706882266e-02  -2.6556611898106103e-01  -2.0277495450884539e-01  -6.7410134630011331e-02  -6.3882876488612017e-02  -4.6490471237470077e-02  -2.3937432899723429e-01  -1.8704068494211992e-02  1.6022344928437655e-03  -1.2306392758412449e-01  8.4042823919207154e-03  -1.8560665099907167e-01  -1.6280786939090969e-01  4.5113323426895405e-04  -1.3014909499041524e-01  -1.0870520269538041e-01  -8.4432321664397889e-02  -1.2152989363218852e-02  -9.4636062839714596e-02  -2.3947833733991672e-01  -1.8153077650626268e-02  -5.3993396646577783e-02  -2.1295325009757551e-01  -7.8507240242445805e-02  -5.8085598751777259e-03  -5.2844390220608523e-02  -6.0754339376243867e-02  -4.9551080361879170e-02  1.3294236229614826e-02  -2.6772197429099701e-02  -2.1871503062954176e-01  1.9417456783758974e-02  -4.2898957218567832e-02  2.7781389399704781e-03  -2.1387319459010329e-01  -2.0177306369399817e-01  1.9982927752779791e-02  1.1240229506391483e-02  -2.3005957817161013e-02  -8.2030763171484777e-03  -5.0224491472226108e-02  1.4073338211128953e-03  -6.0653020231150019e-03  -1.8108110035938813e-01  1.9027361726690617e-02  2.7204487068553931e-03  -1.6239945465713726e-01  -2.9136570486407359e-01  -3.1627787381876243e-01  -1.4394485894855238e-01  -9.8206366469498936e-03  -7.1250120327866831e-03  -1.1911241950962430e-01  -1.3771039099257700e-02  -8.6525397829926243e-02  -3.6203271146636631e-03  -5.4801404990130781e-02  8.2897693719277896e-03  -3.6189885472356985e-02  6.8348891901354810e-04  -1.7403245856671409e-02  1.2517304947030187e-02  2.8966603453513096e-02  4.7418948146759807e-04  8.3135645687856721e-03  -2.3647896665485113e-01  8.7720473630134316e-03  -3.1369688597677556e-03  -2.4388533545224020e-01  -2.3886255110387336e-01  -2.1731174486822052e-01  -1.9468075632988693e-01  -1.9223048406296958e-01  -1.3098408759035679e-01  -1.0576349764772582e-01  -7.2942190927997905e-02  -6.8282228657808461e-02  -1.1086415238921579e-01  -1.4704761001107361e-01  -1.7529150606318658e-01  -3.3362327702156233e-02  -5.2043458034169814e-02  1.2112009292046623e-02  -1.4470831200570206e-02  -6.9222938447130011e-02  1.6742958126258652e-02  1.2860071489518047e-02  1.8682255261467204e-02  4.3830807674403640e-03  -8.6443573816608638e-02  -1.4133677800370323e-02  2.8937276619144241e-02  -1.7114844950225836e-02  -1.0146227281965611e-01  -5.1453419470842169e-03  5.8038141613408391e-03  -6.7016807444754037e-02  7.0802902030971540e-03  -1.1617799574547913e-01  -7.1882196703217304e-03  -3.3330107449540042e-02  -5.7041552517953668e-02  -1.2977911200760331e-01  -6.6738686358362942e-02  1.2441722303450385e-04  -1.4251528150303036e-01  -1.5472026875631031e-01  -1.6648912359196688e-01  -1.7699744115244884e-01  -1.8813094389184526e-01  -1.9830582939519734e-01  -2.0865868472967908e-01  -2.2090259489210434e-01  -2.2857946942355661e-01  -2.3345201570861682e-01  -2.4639487967350301e-01  -2.5987971012401762e-01  -1.9932315098918277e-01  -2.7489544286307960e-01  -1.1357221400652995e-01  -1.5482674516905659e-01  -8.4114600898339012e-02  -6.9342444610893963e-02  2.9357963382504744e-02  -2.8073339598599895e-01  9.0828871248499997e-04  1.9351811710071484e-02  4.1819124439544447e-03  -2.3769935776471102e-01  -8.1715775532119832e-05  2.9494990497806160e-02  -2.3831354254298504e-01  -2.3808185662010056e-01  -2.3855555220972635e-01  -2.3825421244261538e-01  -2.3881947797353553e-01  -2.3883389058941767e-01  -2.3952393361327440e-01  -2.3961313868103484e-01  -2.4047576952291325e-01  -2.4038449448600832e-01  -2.4145495855043236e-01  -2.4088303098770195e-01  -2.4229203268386482e-01  -2.4117473508219842e-01  -2.4300246916635707e-01  -2.4154759479341828e-01  -2.4364484479719692e-01  -2.4194894928297006e-01  -2.4390267312617181e-01  -2.4178967942829396e-01  -2.4278678767411552e-01  -2.3988083106369587e-01  -2.4524965969719228e-01  -2.4275411279287526e-01  -2.3932597045200807e-01  -2.3823704723798830e-01  -2.4462772627220147e-01  -2.4077979558996557e-01  -2.4243713160781763e-01  -2.3689100308680114e-01  -2.3789940309191882e-01  -2.3103767860431965e-01  -2.3097993588018484e-01  -2.2357898163834442e-01  -2.2200564379975873e-01  -2.1330252052102569e-01  -2.1066664809152785e-01  -2.0191674352513655e-01  -1.9793340392163133e-01  -1.8996428845923144e-01  -1.8433799404921278e-01  -1.7640835257202583e-01  -1.7010180058785881e-01  -1.6420762489187904e-01  -1.5620995880992247e-01  -1.5179287404264671e-01  -1.4272476216858040e-01  -1.4045233732448639e-01  -1.3016963825422420e-01  -1.2963515031511766e-01  -1.1912639353264506e-01  -2.3687296910750383e-01  -2.3685159510202389e-01  -1.1967560319339070e-01  -1.0770715451735177e-01  -1.1074092888290898e-01  -9.9695858048870600e-02  -1.0346070576698554e-01  -9.2816032109032262e-02  -9.7051765787224797e-02  -8.7025577904505505e-02  -9.1628962831898017e-02  -8.2496423892749429e-02  -2.3726814175689487e-01  -8.7059376855383439e-02  -7.9069669816374477e-02  -8.3245149597954024e-02  -7.6569169193709666e-02  -8.0055581705670190e-02  -7.4787997397085457e-02  -2.3450665407638438e-01  -2.3570040331499059e-01  -2.3942410076572931e-01  -7.7184694949183980e-02  -7.3426935240345312e-02  -2.3742810399442260e-01  -7.4460858220898415e-02  -7.2231582731127245e-02  -7.1906996881004437e-02  -7.0977237109524832e-02  -6.9253998726086702e-02  -6.9362553808147681e-02  -2.2375706535622389e-01  -6.6348389667828286e-02  -6.7246218933788376e-02  -6.3322511706027790e-02  -6.4530992021992084e-02  -6.0118999992967048e-02  -6.1230791796950595e-02  -2.4372247487530177e-01  -1.9394993615450312e-01  -5.6767615361118837e-02  -5.7412082212343361e-02  -2.3217826550301543e-01  -2.3506800341162318e-01  -2.3035937020509656e-01  -1.6022739902727590e-01  -5.3320979415188256e-02  -5.3262248996060003e-02  -5.0323088657621654e-02  -4.9059817732150138e-02  -4.7818878702544351e-02  -4.5217390262607120e-02  -7.1125586773083144e-02  -5.7008986827815439e-02  -7.0851607945830744e-02  -7.5289072708541377e-02  -4.5910714670494047e-02  -4.1868471259906559e-02  -4.0683571351654693e-02  -3.5681415812106716e-02  -3.9031881016492492e-02  -3.1246647138417141e-02  -3.6632868177018635e-02  -2.7296289232417212e-02  -3.4652778933046552e-02  -2.4086423232785259e-02  -3.2845900274494931e-02  -2.1296426460179142e-02  -3.0800090643389524e-02  -1.8844499901812087e-02  -2.8653310148185011e-02  -1.6528136478182808e-02  -2.5588715128241346e-02  -1.3776056922462998e-02  -2.1981808895978255e-02  -1.1487801039118397e-02  -1.7867510251600785e-02  -9.2824403986723012e-03  -1.3660098760978866e-02  -7.2559807297676773e-03  -9.0776854910042989e-02  -1.3079590472057018e-01  -9.1233560168542237e-03  -5.5825745465857080e-03  -4.8417229978168445e-03  -4.1151007222613159e-03  -2.3619394558556303e-01  -1.0695167686714342e-03  -3.2111962096284166e-03  -1.4796844189939162e-01  -1.9223205594701775e-01  -2.2975817535612333e-01  -2.3150009764119694e-01  -2.3765995613924024e-01  -2.3608066346219381e-01  -2.4157640573240100e-01  -2.4021060905381109e-01  -2.4613693518465149e-01  -2.4421468075882441e-01  -2.5098772554613058e-01  -2.4798592117657769e-01  -2.5536723551128626e-01  -2.5088602072612465e-01  -2.5881177966986402e-01  -2.5309929864249758e-01  -2.6180948671100207e-01  -2.5487714587255594e-01  -2.6107384060538114e-01  -2.5360744452679290e-01  -2.5993451759757935e-01  -2.5339996798235831e-01  -2.5782614129635856e-01  -2.5135059105437357e-01  -2.5483873517075795e-01  -2.4863573216716375e-01  -2.5130674049607088e-01  -2.4550694157100533e-01  -2.4745594981841229e-01  -2.4199166651465429e-01  -2.4679715166854249e-01  -2.3976150473200514e-01  -2.3655678377806738e-01  -2.3826061339779664e-01  -2.3320007127928466e-01  -2.3444204719610590e-01  -2.2970676172727414e-01  -2.3072496495834371e-01  -2.2616331098031400e-01  -2.2836994562219254e-01  -2.2744030959280476e-01  -2.2259777405129311e-01  -2.2284886230994283e-01  -2.1874695213602535e-01  -2.1825587359233908e-01  -2.1465871436660747e-01  -2.1490271989431944e-01  -2.1102671289641087e-01  -2.1094279762861629e-01  -2.0733011348076377e-01  -2.4617804464664605e-01  -2.0700622423204446e-01  -2.0355202479502424e-01  -2.0358110628263140e-01  -1.9993662279443292e-01  -1.9978336035250888e-01  -1.9625512307701509e-01  -1.9600031084277439e-01  -1.9255579944784662e-01  -2.6686953881340875e-01  -2.4864728417529733e-01  -2.5807220240719836e-01  -2.6650627649140313e-01  -1.9214139477970046e-01  -1.8879294040065570e-01  -1.8909900181319489e-01  -1.8534937092127385e-01  -1.8498957644180500e-01  -1.8157975058401918e-01  -1.8112565699127253e-01  -1.7775408865222667e-01  -1.7818278803886120e-01  -1.7437923998848467e-01  -1.7382833976403644e-01  -1.7051311441461317e-01  -2.1412659494118783e-01  -1.6987019521135163e-01  -1.6664740216810428e-01  -2.6133177237447147e-01  -2.4077433352079924e-01  -1.9994470580119045e-01  -2.5287833954148048e-01  -1.6596487784131020e-01  -1.6266801826418315e-01  -1.6359926676668590e-01  -1.5938372066754358e-01  -1.5874714917036301e-01  -1.5531053073669426e-01  -1.5595471942642372e-01  -1.5188046771829264e-01  -1.5123050292737836e-01  -1.4780880061392490e-01  -2.3522309807434674e-01  -1.4715736088757256e-01  -1.4366812011073540e-01  -1.7459108212429764e-01  -2.1388443014296377e-01  -1.0823080312506382e-01  -2.2662677624178890e-01  -1.4434090269380409e-01  -1.4017989192474703e-01  -1.3951302047053044e-01  -1.3602338798785593e-01  2.1731328403429796e-03  -2.4023077061113081e-03  4.7563889771380340e-03  -1.8650760160973574e-03  6.6240318604989757e-03  -1.2892335555944824e-03  -1.3519542970783657e-01  -1.3175120192910456e-01  -8.2306796730739776e-02  -1.3246874068926023e-01  -1.2822259562478591e-01  -1.2763478354875868e-01  -1.2400465901700497e-01  -2.3891138290390887e-01  -2.3073742947843606e-01  -1.9942922377100966e-01  -9.3120706940221405e-03  7.8883872574454471e-03  -6.7388656908886940e-04  -3.4671742927321288e-02  -3.4299733522152927e-03  -9.2700989919799331e-03  -8.6702418380468303e-03  9.9471751201714680e-05  -7.4125195733021048e-03  8.3425040128667861e-04  -5.5800326307370264e-03  1.5873385311044592e-03  -3.3627577562397150e-03  2.0753156802807947e-03  -1.1405285039101075e-03  2.2138675185798405e-03  8.4353581504035646e-04  1.8066017211508620e-03  2.2095875477636385e-03  7.8411171270150392e-04  2.8994604650764014e-03  -6.6364968570445013e-04  2.9024362704938712e-03  -2.3027612032122335e-03  2.4112706463589556e-03  -4.1108256366100939e-03  1.552738