<?xml version="1.0"?>
<VTKFile type="UnstructuredGrid"  version="0.1"  >
<UnstructuredGrid>
<Piece  NumberOfPoints="2945" NumberOfCells="5525">
<Points>
<DataArray  type="Float64"  NumberOfComponents="3"  format="ascii">0 0.1 0  0.95 0.1 0  1 0.1 0  1 0 0  1.5 0 0  3 0 0  3 0.3 0  0 0.3 0  0.0197424558707114 0.1 0  0.03915669042224804 0.1 0  0.05824816022699029 0.1 0  0.07702223050332387 0.1 0  0.09548417327144595 0.1 0  0.1136391897583987 0.1 0  0.1314923700144587 0.1 0  0.1490487330862866 0.1 0  0.1663132263225292 0.1 0  0.1832906857273058 0.1 0  0.1999858946008978 0.1 0  0.216403545770297 0.1 0  0.2325482404045023 0.1 0  0.2484245348165176 0.1 0  0.2640368740372501 0.1 0  0.2793896589642241 0.1 0  0.2944872056237027 0.1 0  0.3093337469555254 0.1 0  0.3239334613687816 0.1 0  0.3382904528528069 0.1 0  0.3524087553122972 0.1 0  0.3662923366391824 0.1 0  0.3799451014768399 0.1 0  0.393370886920506 0.1 0  0.4065734648871676 0.1 0  0.419556546320114 0.1 0  0.4323237821343415 0.1 0  0.4448787573056132 0.1 0  0.4572250047274954 0.1 0  0.4693659926332938 0.1 0  0.4813051343276231 0.1 0  0.4930457849308193 0.1 0  0.5045912455271677 0.1 0  0.5159447600209797 0.1 0  0.5271095174127136 0.1 0  0.5380886618453393 0.1 0  0.5488852725463512 0.1 0  0.5595023868312478 0.1 0  0.5699429904313016 0.1 0  0.5802100167387366 0.1 0  0.5903063508274641 0.1 0  0.6002348329443006 0.1 0  0.6099982499579832 0.1 0  0.6195993483501782 0.1 0  0.6290408246013842 0.1 0  0.6383253354321616 0.1 0  0.6474554910757137 0.1 0  0.6564338522440513 0.1 0  0.6652629482939147 0.1 0  0.6739452579188948 0.1 0  0.6824832240165607 0.1 0  0.6908792415022103 0.1 0  0.6991356755989045 0.1 0  0.7072548438546967 0.1 0  0.7152390281534421 0.1 0  0.7230904746196039 0.1 0  0.7308113906759266 0.1 0  0.7384039435269326 0.1 0  0.7458702676581656 0.1 0  0.7532124631720397 0.1 0  0.7604325921167397 0.1 0  0.7675326856666862 0.1 0  0.7745147374421916 0.1 0  0.7813807123989068 0.1 0  0.7881325374362798 0.1 0  0.7947721131625659 0.1 0  0.8013013031866276 0.1 0  0.8077219449067021 0.1 0  0.8140358419942376 0.1 0  0.8202447685401882 0.1 0  0.8263504700910924 0.1 0  0.8323546643163114 0.1 0  0.8382590362474568 0.1 0  0.8440652473522128 0.1 0  0.8497749272799842 0.1 0  0.8553896837646281 0.1 0  0.8609110933285474 0.1 0  0.866340708855119 0.1 0  0.8716800550492284 0.1 0  0.8769306339052932 0.1 0  0.8820939206038667 0.1 0  0.8871713655604893 0.1 0  0.8921643975475726 0.1 0  0.8970744196575535 0.1 0  0.9019028106970642 0.1 0  0.9066509291259979 0.1 0  0.9113201098984042 0.1 0  0.9159116634553873 0.1 0  0.9204268818729691 0.1 0  0.9248670319440222 0.1 0  0.9292333656649013 0.1 0  0.9335271075812669 0.1 0  0.9377494640511216 0.1 0  0.941901623463222 0.1 0  0.9459847526686701 0.1 0  0.9538461538461205 0.1 0  0.9576923076922409 0.1 0  0.9615384615384381 0.1 0  0.9653846153846337 0.1 0  0.9692307692307542 0.1 0  0.9730769230768747 0.1 0  0.9769230769229952 0.1 0  0.9807692307691157 0.1 0  0.9846153846152361 0.1 0  0.9884615384614317 0.1 0  0.9923076923076356 0.1 0  0.9961538461538395 0.1 0  1 0.09591793123533533 0  1 0.09133596463859224 0  1 0.08619288104391448 0  1 0.08041996484521211 0  1 0.07394008421771697 0  1 0.06666666567302955 0  1 0.05850252932209174 0  1 0.04933859630113544 0  1 0.03905242821848202 0  1 0.02750659386753798 0  1 0.01454683679239736 0  1.015625 0 0  1.03125 0 0  1.046875 0 0  1.0625 0 0  1.078125 0 0  1.09375 0 0  1.109375 0 0  1.125 0 0  1.140625 0 0  1.15625 0 0  1.171875 0 0  1.1875 0 0  1.203125 0 0  1.21875 0 0  1.234375 0 0  1.25 0 0  1.265625 0 0  1.28125 0 0  1.296875 0 0  1.3125 0 0  1.328125 0 0  1.34375 0 0  1.359375 0 0  1.375 0 0  1.390625 0 0  1.40625 0 0  1.421875 0 0  1.4375 0 0  1.453125 0 0  1.46875 0 0  1.484375 0 0  1.515920751924515 0 0  1.531989369316721 0 0  1.54820720925872 0 0  1.564575665560501 0 0  1.581096138674279 0 0  1.597770029901263 0 0  1.614598783332311 0 0  1.631583831055205 0 0  1.64872661129721 0 0  1.666028606716533 0 0  1.683491276608443 0 0  1.701116134125304 0 0  1.718904673324128 0 0  1.736858414799339 0 0  1.754978895814663 0 0  1.773267661782904 0 0  1.791726281103402 0 0  1.810356325314689 0 0  1.8291593848892 0 0  1.848137076690385 0 0  1.867291007717254 0 0  1.886622833871288 0 0  1.90613418642363 0 0  1.925826753299799 0 0  1.945702199101513 0 0  1.96576223584749 0 0  1.986008569283268 0 0  2.006442931928877 0 0  2.02706707547783 0 0  2.047882750887917 0 0  2.06889175187935 0 0  2.090095860038271 0 0  2.111496891648636 0 0  2.133096679109554 0 0  2.154897066851056 0 0  2.176899916687499 0 0  2.199107102752146 0 0  2.22152053937028 0 0  2.244142122958061 0 0  2.266973806444078 0 0  2.290017523268154 0 0  2.313275249499252 0 0  2.336748971745516 0 0  2.360440702338606 0 0  2.384352453384031 0 0  2.408486280477412 0 0  2.432844240041185 0 0  2.457428414757088 0 0  2.482240901796653 0 0  2.507283830121838 0 0  2.532559332080812 0 0  2.558069568787417 0 0  2.583816724966441 0 0  2.60980299606584 0 0  2.636030600971886 0 0  2.662501790984011 0 0  2.689218818279327 0 0  2.716183964547616 0 0  2.743399548861297 0 0  2.77086788244719 0 0  2.798591312896326 0 0  2.826572223178268 0 0  2.854812990138617 0 0  2.883316031690714 0 0  2.912083780657189 0 0  2.941118704633482 0 0  2.970423276998917 0 0  3 0.02999999999994495 0  3 0.05999999999987042 0  3 0.089999999999783 0  3 0.119999999999701 0  3 0.149999999999619 0  3 0.179999999999692 0  3 0.2099999999997737 0  3 0.2399999999998511 0  3 0.2699999999999185 0  2.970138294777171 0.3 0  2.940375666438236 0.3 0  2.910711782853056 0.3 0  2.881146331305122 0.3 0  2.851678975030285 0.3 0  2.822309388626621 0.3 0  2.793037250095074 0.3 0  2.76386223529133 0.3 0  2.734784017903872 0.3 0  2.705802289276642 0.3 0  2.676916713794697 0.3 0  2.648126987654635 0.3 0  2.619432780406184 0.3 0  2.590833779385199 0.3 0  2.562329669847737 0.3 0  2.533920134950189 0.3 0  2.505604855727852 0.3 0  2.477383539822502 0.3 0  2.449255847639465 0.3 0  2.421221492569094 0.3 0  2.393280152486815 0.3 0  2.36543151914496 0.3 0  2.337675285481809 0.3 0  2.310011142385583 0.3 0  2.282438797441587 0.3 0  2.254957931061538 0.3 0  2.227568248063605 0.3 0  2.200269436651085 0.3 0  2.173061204949961 0.3 0  2.145943251515011 0.3 0  2.118915272469994 0.3 0  2.091976978084957 0.3 0  2.065128060700849 0.3 0  2.038368218849433 0.3 0  2.01169717777258 0.3 0  1.985114624111908 0.3 0  1.958620267850966 0.3 0  1.93221382054972 0.3 0  1.905894991850698 0.3 0  1.879663489459713 0.3 0  1.853519019126419 0.3 0  1.827461291053897 0.3 0  1.801490031354372 0.3 0  1.775604937580312 0.3 0  1.74980572560258 0.3 0  1.724092118631866 0.3 0  1.698463829173586 0.3 0  1.672920575782554 0.3 0  1.647462076974085 0.3 0  1.622088043536933 0.3 0  1.5967981978949 0.3 0  1.571592267767068 0.3 0  1.546469970305736 0.3 0  1.521431023814044 0.3 0  1.496475156230927 0.3 0  1.471602093687753 0.3 0  1.446811560490646 0.3 0  1.422103279101731 0.3 0  1.397476971708191 0.3 0  1.37293238939876 0.3 0  1.348469231419202 0.3 0  1.324087248732772 0.3 0  1.299786165921677 0.3 0  1.275565710847046 0.3 0  1.251425617644257 0.3 0  1.227365618676339 0.3 0  1.203385446174014 0.3 0  1.179484853067473 0.3 0  1.155663548773374 0.3 0  1.131921292279077 0.3 0  1.108257802159295 0.3 0  1.084672829009693 0.3 0  1.061166115303374 0.3 0  1.037737392995421 0.3 0  1.01438640299116 0.3 0  0.991112899770314 0.3 0  0.9679166155523955 0.3 0  0.944797284182564 0.3 0  0.921754678526042 0.3 0  0.8987885143602501 0.3 0  0.8758985548820624 0.3 0  0.8530845484099929 0.3 0  0.8303462351786988 0.3 0  0.8076833651172373 0.3 0  0.7850956864865304 0.3 0  0.7625829601354557 0.3 0  0.7401449314598274 0.3 0  0.717781337993959 0.3 0  0.6954919649675473 0.3 0  0.6732765357561226 0.3 0  0.6511348120768439 0.3 0  0.6290665642016573 0.3 0  0.6070715355430467 0.3 0  0.5851494825775325 0.3 0  0.5633001690203812 0.3 0  0.5415233562273221 0.3 0  0.5198187909431873 0.3 0  0.4981862401387795 0.3 0  0.4766254686134248 0.3 0  0.4551362360485234 0.3 0  0.4337182975262159 0.3 0  0.4123714223228037 0.3 0  0.3910953802377493 0.3 0  0.3698899313205595 0.3 0  0.3487548463710963 0.3 0  0.3276898864081783 0.3 0  0.3066948129116018 0.3 0  0.2857694003037476 0.3 0  0.2649134227095047 0.3 0  0.2441266417321288 0.3 0  0.2234088223399122 0.3 0  0.2027597568977288 0.3 0  0.1821792020676698 0.3 0  0.1616669305402443 0.3 0  0.1412227158799362 0.3 0  0.12084633013886 0.3 0  0.1005375673448281 0.3 0  0.08029618164595353 0.3 0  0.06012194778526769 0.3 0  0.04001466495039718 0.3 0  0.01997408913631205 0.3 0  0 0.2800000000000553 0  0 0.2600000000001105 0  0 0.2400000000001658 0  0 0.2200000000002211 0  0 0.2000000000002764 0  0 0.1800000000002244 0  0 0.1600000000001691 0  0 0.140000000000115 0  0 0.1200000000000564 0  1.133778471000506 0.01219539743990768 0  1.003741919047894 0.09354664821474232 0  0.9559421147150347 0.1035858189992458 0  0.9313792160389045 0.1037365237938103 0  0.9788461538460573 0.1033060829993555 0  0.9090102438250753 0.1037269304984056 0  0.8846304212778655 0.1043349840723655 0  0.8581503885465881 0.104741932962923 0  0.8286416220145676 0.1052762843984476 0  0.7982741772533339 0.1053575624517407 0  0.7708789559342691 0.1060290465840416 0  0.741870349714261 0.1078220590984258 0  0.7112469360040695 0.10685702926368 0  0.6783901541417233 0.1079959711853378 0  0.642884733623195 0.1075561996086514 0  0.6056235042367955 0.1085956039602543 0  0.5647007593786924 0.1083187281660325 0  1.1953125 0.01353164693413185 0  1.258148737344733 0.01268350115427042 0  1.320087046516829 0.01426312402966312 0  1.383495130751951 0.01432665475473204 0  1.4453125 0.01315663539200989 0  1.50886768312388 0.01395488397722681 0  0.9942307692307371 0.103330866937657 0  1.119309781943483 0.2802014914557878 0  1.572831235329714 0.01707210522554785 0  1.637611634353954 0.01209340368483431 0  1.709661292005932 0.0146870244871893 0  1.006561890631532 0.07068055446055937 0  1.784793444007901 0.01499371444634687 0  1.855459587353174 0.0
[...]
<PointData  Scalars="pressure"> 
<DataArray  type="Float64"  Name="pressure"  format="ascii">7.2302138203695909e-02  -2.4256241071547335e-01  -2.8456078881401109e-01  -2.2947728576659585e-01  -7.0785138698396075e-02  0.0000000000000000e+00  0.0000000000000000e+00  7.2318880498283319e-02  6.6379419678568238e-02  6.0554999037551190e-02  5.4827193359182208e-02  4.9194375225079870e-02  4.3654913333755908e-02  3.8207259323045889e-02  3.2849837852110493e-02  2.7581108651310554e-02  2.2399596792917344e-02  1.7303732578200601e-02  1.2292074436574230e-02  7.3631961159353150e-03  2.5156125686782000e-03  -2.2520623256237198e-03  -6.9412782756692534e-03  -1.1553388235933231e-02  -1.6089832682087562e-02  -2.0551903657927098e-02  -2.4941025077911575e-02  -2.9258461385665086e-02  -3.3505674677731030e-02  -3.7683869856129246e-02  -4.1794219977367160e-02  -4.5838355112659407e-02  -4.9817371953772220e-02  -5.3732624167367203e-02  -5.7585265410033566e-02  -6.1376787522654547e-02  -6.5108201242074476e-02  -6.8781050398054322e-02  -7.2396292186614933e-02  -7.5955243216778101e-02  -7.9459425276188891e-02  -8.2909895090588104e-02  -8.6307802552195237e-02  -8.9654479803346676e-02  -9.2951285452785096e-02  -9.6199245677011727e-02  -9.9399771294116979e-02  -1.0255395209132569e-01  -1.0566322326032186e-01  -1.0872872021050191e-01  -1.1175163231071830e-01  -1.1473320823114405e-01  -1.1767481793202349e-01  -1.2057749617300077e-01  -1.2344272319250253e-01  -1.2627155692257810e-01  -1.2906526536484697e-01  -1.3182547025892935e-01  -1.3455267665961282e-01  -1.3724898114258546e-01  -1.3991525185332127e-01  -1.4255217074728396e-01  -1.4516173880485905e-01  -1.4774511423703621e-01  -1.5030318976916646e-01  -1.5283848602369396e-01  -1.5535035360019533e-01  -1.5784053332163489e-01  -1.6031134029962965e-01  -1.6276331776542918e-01  -1.6519861499902974e-01  -1.6761686006244220e-01  -1.7001962261187514e-01  -1.7240988122766387e-01  -1.7478760724579331e-01  -1.7715456420201442e-01  -1.7951197801542312e-01  -1.8186127638610458e-01  -1.8420356525799808e-01  -1.8654079786348468e-01  -1.8887361394394594e-01  -1.9120361732428925e-01  -1.9353331971170418e-01  -1.9586384190134098e-01  -1.9819609354757320e-01  -2.0053280637286333e-01  -2.0287563784205936e-01  -2.0522598120094890e-01  -2.0758549858893927e-01  -2.0995969279886606e-01  -2.1234771959430218e-01  -2.1475379833129468e-01  -2.1717883508294933e-01  -2.1963578877645465e-01  -2.2211064545979600e-01  -2.2455614715415417e-01  -2.2775375234197454e-01  -2.2643647412898454e-01  -2.4805029280350857e-01  -2.1519272355296407e-01  -2.4132057127343096e-01  -2.3929208349343384e-01  -2.4361859327533333e-01  -2.4966800905555203e-01  -2.5587564269975294e-01  -2.5967309829135815e-01  -2.6208239681742368e-01  -2.6315253368656683e-01  -2.6317031680283670e-01  -2.6233763160440743e-01  -2.6091146088871220e-01  -2.5908546379534819e-01  -2.5698207941086398e-01  -2.5631222130386366e-01  -2.4550756646133559e-01  -2.6851863388895486e-01  -2.4921767560212341e-01  -2.4263898895281011e-01  -2.3803122244039251e-01  -2.3499311134980877e-01  -2.3266774235883192e-01  -2.3078603386421750e-01  -2.2937495263860416e-01  -2.2851729291587680e-01  -2.2834343121528969e-01  -2.2896911956774835e-01  -2.3012791249571588e-01  -2.3078629246623189e-01  -2.3078139843505713e-01  -2.3018227259690641e-01  -2.2896337956813603e-01  -2.2701869781779430e-01  -2.2416848351865287e-01  -2.2027621221722632e-01  -2.1532281822281235e-01  -2.0930495185477904e-01  -2.0222977795724775e-01  -1.9419440808700786e-01  -1.8533317129100965e-01  -1.7580086447662621e-01  -1.6580305533523451e-01  -1.5556712743374190e-01  -1.4533584008824219e-01  -1.3529985701083466e-01  -1.2566444325281614e-01  -1.1672616515577559e-01  -1.0839742618528231e-01  -1.0101772844732332e-01  -9.4523158492526974e-02  -8.8973967177927618e-02  -8.4344418594690260e-02  -8.0642062987188290e-02  -7.7751732715376359e-02  -7.5554450779192900e-02  -7.3922361573390341e-02  -7.2701219482534579e-02  -7.1717169806601089e-02  -6.9705722656154601e-02  -6.8283781140197383e-02  -6.6340502144105154e-02  -6.3685953418983199e-02  -6.0289395152262275e-02  -5.6027460542040254e-02  -5.0908118591432454e-02  -4.4986583197497799e-02  -3.8371913984086382e-02  -3.1282214457542569e-02  -2.3951064925989547e-02  -1.6640377763980696e-02  -9.5943570567289180e-03  -3.0754716116307562e-03  2.7243218969104487e-03  7.6364896224319868e-03  1.1563144866570235e-02  1.4375922609405768e-02  1.6195311969863638e-02  1.6976211334668513e-02  1.6794477040721189e-02  1.5776253412497963e-02  1.4012243566744083e-02  1.1617954905827297e-02  8.7352429381860833e-03  5.4838211962786633e-03  2.1213787186811195e-03  -1.2671443467926478e-03  -4.3876557352302377e-03  -6.9715156881780260e-03  -8.7852867224630544e-03  -9.5906336548038425e-03  -9.2320663907836872e-03  -7.6526070172263840e-03  -4.8870586344133202e-03  -1.1553369008839851e-03  3.2614339615565958e-03  7.9630900456559555e-03  1.2576800139659354e-02  1.6714720853860488e-02  2.0073205737443939e-02  2.2437455104569903e-02  2.3703645277344011e-02  2.3857625928415616e-02  2.2970891249802273e-02  2.1165267033839873e-02  1.8580889990829123e-02  1.5388266147118215e-02  1.1781005398457625e-02  7.9458756614178734e-03  4.0370020548403671e-03  4.8030369442881454e-04  -2.5948990353250596e-03  -4.7852062724955801e-03  -5.7761371644098015e-03  -5.4574881434708211e-03  -3.9110035072816062e-03  -1.1135071502593752e-03  2.3561823091395478e-03  6.1092083826751699e-03  9.5602035095516888e-03  1.2383055857055630e-02  1.3921185591310049e-02  1.4170602436347159e-02  1.2664148999308627e-02  9.8114875174963000e-03  5.3024666277482393e-03  0.0000000000000000e+00  0.0000000000000000e+00  0.0000000000000000e+00  0.0000000000000000e+00  0.0000000000000000e+00  0.0000000000000000e+00  0.0000000000000000e+00  0.0000000000000000e+00  0.0000000000000000e+00  -3.0751418018272587e-03  -4.9462666555282085e-03  -5.1008759931063302e-03  -3.4861116160164753e-03  -3.6142639706373197e-04  3.7479935233674837e-03  8.3572124545118129e-03  1.3012712220749616e-02  1.7329473695962383e-02  2.0984100287256200e-02  2.3685954723546603e-02  2.5163295882970185e-02  2.5179313212505872e-02  2.3583906443616357e-02  2.0371925965247152e-02  1.5735354306818095e-02  1.0113788524883574e-02  4.1422634448027027e-03  -1.4261237706593619e-03  -5.8417095254361213e-03  -8.5163972188331688e-03  -9.1272237430508538e-03  -7.6746206528122557e-03  -4.4866203653040320e-03  -2.3324700645974712e-05  5.0494065432725018e-03  1.0150945425541336e-02  1.4802840105095688e-02  1.8541220745573433e-02  2.1053788940404519e-02  2.2038971985929398e-02  2.1303919193037413e-02  1.8571948909602447e-02  1.4044166840710189e-02  7.3277529999650551e-03  -8.2077857846668176e-04  -1.0154684364906172e-02  -1.9784153762945417e-02  -2.8922348183390987e-02  -3.7013198696008422e-02  -4.3296426088675628e-02  -4.7581400824986332e-02  -5.0036242055091280e-02  -5.0942034835478087e-02  -5.0837479062492870e-02  -5.0279589652670112e-02  -4.9825742742464894e-02  -4.9888946412472469e-02  -5.0695371492519341e-02  -5.2448132292246978e-02  -5.5244755304431216e-02  -5.9119180616866038e-02  -6.4083388773168992e-02  -7.0020746177446122e-02  -7.6935379701363660e-02  -8.4659028132529540e-02  -9.3019687836059642e-02  -1.0178165359424210e-01  -1.1072247461019877e-01  -1.1961015338678256e-01  -1.2827831804218440e-01  -1.3648625279481635e-01  -1.4420279111994797e-01  -1.5134931153798323e-01  -1.5786412604224831e-01  -1.6372896361853920e-01  -1.6899107412031952e-01  -1.7366766821969268e-01  -1.7777210970600643e-01  -1.8133276369073592e-01  -1.8428392754971556e-01  -1.8670661469915906e-01  -1.8858674448810528e-01  -1.8982039986975058e-01  -1.9025537314721655e-01  -1.9002588912981738e-01  -1.8897347176299598e-01  -1.8713542518067339e-01  -1.8470653697883568e-01  -1.8140450309998662e-01  -1.7752798923841492e-01  -1.7312420076828411e-01  -1.6832235842769791e-01  -1.6316420822509423e-01  -1.5769812315527951e-01  -1.5199307673220908e-01  -1.4611923934068052e-01  -1.4010520876637897e-01  -1.3396537126583025e-01  -1.2775185629110522e-01  -1.2146912075085126e-01  -1.1514279101932552e-01  -1.0878330081098676e-01  -1.0239863842594533e-01  -9.5998336631059070e-02  -8.9591986993988501e-02  -8.3183473145970757e-02  -7.6776268316337187e-02  -7.0375140320107860e-02  -6.3983702238328222e-02  -5.7603989804328418e-02  -5.1236163083278524e-02  -4.4883343513056652e-02  -3.8546080007717649e-02  -3.2225647126706586e-02  -2.5922448636816756e-02  -1.9636988380594037e-02  -1.3370518058340507e-02  -7.1223154191676925e-03  -8.9368621965582509e-04  5.3158515751079377e-03  1.1505867967441160e-02  1.7676114876324804e-02  2.3826786247058120e-02  2.9957632291682947e-02  3.6068671310584569e-02  4.2159886043907926e-02  4.8231276200649001e-02  5.4282860554668570e-02  6.0314649160905912e-02  6.6326652139982067e-02  7.2318835538959361e-02  7.2318153988424644e-02  7.2316439288938453e-02  7.2313768051764801e-02  7.2310512888702383e-02  7.2307262889233184e-02  7.2304581867702375e-02  7.2302880219658541e-02  7.2302195976147260e-02  -2.1725816382540744e-01  -2.5276818492578279e-01  -2.5361836916834679e-01  -2.3237509854647120e-01  -2.5991538817881660e-01  -2.2104091508123672e-01  -2.0889604406516291e-01  -1.9712664668253280e-01  -1.8517319895501114e-01  -1.7374267307149341e-01  -1.6397833917859814e-01  -1.5404905953189918e-01  -1.4388695574885621e-01  -1.3327018622502357e-01  -1.2202513070370763e-01  -1.1041002634684143e-01  -9.7801118981050275e-02  -1.8995710684761791e-01  -1.5063823020399181e-01  -1.1305650440751516e-01  -8.6657656188735471e-02  -7.4717824449774956e-02  -7.0187506419653364e-02  -2.5516968007505408e-01  -1.8213619678896933e-01  -6.2477225046408187e-02  -4.3210843676104414e-02  -1.4009107484216190e-02  -2.3449409643054300e-01  9.6114944588352978e-03  1.6816560180864512e-02  -8.4720749584575580e-02  1.0432150189143764e-02  -1.6573614977164614e-01  -1.3992282925041133e-01  -3.1077685574559867e-03  -1.0588885923032075e-01  -7.0382046907281531e-02  -6.7447874098475122e-02  -9.6547066670871935e-03  -5.6323495245518822e-02  -2.2734624693848968e-01  5.3104940933994607e-04  -4.9663201207940641e-02  -1.8851422656406569e-01  -4.0200930788854401e-02  1.8208477853476856e-02  -4.9104159275996956e-02  -2.2451242466110664e-02  -3.4249830533068640e-02  2.3650202555158796e-02  -5.4693353312772475e-03  -1.8790553335504437e-01  1.3518250014983996e-02  -4.5972878594056060e-03  1.6315315411134509e-02  -1.7935072975623570e-01  -1.6519045013143374e-01  2.1834962977854443e-02  -8.9802801540549680e-04  1.5295031536385726e-02  3.0097681650762712e-02  -5.0136196732053086e-02  -6.0558211205967351e-03  4.5757578462186926e-04  -1.4338869841370327e-01  1.2773710871530213e-02  -6.4213697935049628e-03  -1.2435690697258783e-01  -2.4187514710080918e-01  -2.6142441523275789e-01  -1.0575723809752555e-01  -7.9680393451348093e-03  1.0710259282960285e-02  -8.0848900023009845e-02  1.2421955945566214e-02  -4.8233303241348675e-02  2.4466962599803212e-02  -1.6502899732555011e-02  2.2746208413246257e-02  2.1097348883728252e-03  3.8983798866064519e-02  2.0896858651675419e-02  1.1076723091337908e-02  6.7267115658386667e-02  -1.3550397077857950e-03  4.6614198784653470e-02  -2.2968319851350036e-01  -1.6970242325156956e-03  1.3667018833783736e-02  -2.3997835446643218e-01  -2.2976801969069621e-01  -1.8967250190977802e-01  -1.7512019937070494e-01  -1.5497104731034061e-01  -9.2746608098971270e-02  -6.7483141280460290e-02  -3.4646203242124862e-02  -5.6738478502299315e-02  -8.8325068161160994e-02  -1.2285269080566465e-01  -1.5409110215735383e-01  4.9389412803488393e-03  -1.3741202213843586e-02  2.8164320503238555e-03  5.1077888006339383e-04  -3.0918627489966558e-02  6.5258596693572582e-03  5.1160443881219680e-02  2.0046168600399525e-02  2.3126578155036638e-02  -4.8134738212499001e-02  9.8602730543997947e-03  6.7237718293715082e-02  -6.7661272609828831e-03  -6.3145364824539363e-02  -7.5337872038473610e-03  3.7119167963742608e-03  -6.7441220985850606e-02  1.5160389203993816e-02  -7.7845919697684049e-02  1.5049995079410078e-02  -8.1863498490892053e-04  -2.8762928650567544e-02  -9.1421519092563269e-02  -5.3797973345621190e-02  4.0653429146767783e-03  -1.0411648791541100e-01  -1.1625654554607968e-01  -1.2792586333486247e-01  -1.3830052145607344e-01  -1.4922692267524068e-01  -1.5913389500168057e-01  -1.6911339347750096e-01  -1.8075076657119882e-01  -2.0535218399826113e-01  -1.9245097490332638e-01  -2.0422442644991365e-01  -2.1611753147689347e-01  -1.7114149860279643e-01  -2.2889108317638551e-01  -9.8279501816918011e-02  -1.3003995949382802e-01  -7.9709784661204416e-02  -7.2166136101865078e-02  6.7658533805453031e-02  -2.5669422719737867e-01  -4.5777973211402591e-03  5.7652411117521368e-02  -5.8148477022008892e-03  -2.2984398699623373e-01  5.0205498017837809e-03  6.7795393253479344e-02  -2.3001135296103448e-01  -2.2969125671901119e-01  -2.2940565799153650e-01  -2.3002661077289885e-01  -2.2981784459204502e-01  -2.3094191693382762e-01  -2.3070371357787675e-01  -2.3216666440980349e-01  -2.3193032699736266e-01  -2.3345980568480981e-01  -2.3311938234599711e-01  -2.3446310974150020e-01  -2.3394390045619776e-01  -2.3493907235378131e-01  -2.3422437030123880e-01  -2.3486643311585434e-01  -2.3370974478239542e-01  -2.3400633550321490e-01  -2.3209436796592095e-01  -2.3143858338896714e-01  -2.2848024655825655e-01  -2.3340132104238426e-01  -2.2915464146879325e-01  -2.2437382632358696e-01  -2.2969447659006167e-01  -2.3196052303336681e-01  -2.2418780108318428e-01  -2.1847477629479531e-01  -2.1841888371140131e-01  -2.1136215393014524e-01  -2.1064008927730132e-01  -2.0304038668420821e-01  -2.0134247813098369e-01  -1.9392253397018649e-01  -1.9075480590911439e-01  -1.8299765993250597e-01  -1.7874887881601731e-01  -1.7123776617859252e-01  -1.6612745924112612e-01  -1.5978396706342976e-01  -1.5340947220275572e-01  -1.4766343100382631e-01  -1.4077970477832935e-01  -1.3683990245204664e-01  -1.2900728062386305e-01  -1.2644593066960547e-01  -1.1812093634193908e-01  -1.1735323105242089e-01  -1.0851146047484618e-01  -1.0903055038360956e-01  -1.0059167369653077e-01  -2.2679916134612685e-01  -2.2882739041510969e-01  -1.0167638279285600e-01  -9.2752013716687814e-02  -9.5386186076307902e-02  -8.7869999098033169e-02  -9.0513101297358386e-02  -8.3884809497749749e-02  -8.6357706754613087e-02  -8.0790908873292946e-02  -8.2823575123455923e-02  -7.8472920205386834e-02  -2.1701279937380413e-01  -7.9730351407046388e-02  -7.6623985141471937e-02  -7.6871440259897006e-02  -7.4936604899792078e-02  -7.4021378767384433e-02  -7.3119022518421534e-02  -2.2297468895339531e-01  -2.2519193669458160e-01  -2.3510890391450634e-01  -7.0987942000407034e-02  -7.0887005874564590e-02  -2.3279191737695146e-01  -6.7727095674773766e-02  -6.8084591721403256e-02  -6.4117840852046901e-02  -6.4637394944481646e-02  -6.0267782964370423e-02  -6.0519826890433323e-02  -1.9626314990665461e-01  -5.6147690639763000e-02  -5.5904561742848018e-02  -5.2227192721619388e-02  -5.1050670325527042e-02  -4.8510435073651659e-02  -4.6172370423133088e-02  -2.3282881107395129e-01  -1.6505300566926562e-01  -4.5186580950507885e-02  -4.1662433613624608e-02  -2.1842822878340362e-01  -2.2188561535018297e-01  -2.1569826348187948e-01  -1.3473296137102075e-01  -4.2746764289621403e-02  -3.7584057531430973e-02  -4.0998102744106486e-02  -3.4251029937297929e-02  -3.9935225409379535e-02  -3.1824986240079053e-02  -7.2709432891179801e-02  -3.5764144724584876e-02  -6.4676775550199031e-02  -7.5405696425033031e-02  -3.9272206181757828e-02  -3.0075819625551625e-02  -2.1636984508441245e-02  -1.8658969262574515e-02  -2.8542254046398100e-02  -1.6303639421660066e-02  -2.6968749257157192e-02  -1.4256005157067615e-02  -2.5276740828014191e-02  -1.2660284515518337e-02  -2.3181545444035719e-02  -1.0932485728002494e-02  -2.0380986864628529e-02  -9.2252811035969003e-03  -1.7194750497112273e-02  -7.3245647076928041e-03  -1.3210220651794257e-02  -5.1370659679008737e-03  -8.9493361090955750e-03  -3.2232349651054818e-03  -4.6222009947895389e-03  -1.4787789404241073e-03  -4.2673560184112655e-04  2.0086610565478121e-04  -8.2172558511848251e-02  -1.1048946817642676e-01  3.5326390897699286e-03  1.6379727163683116e-03  6.8615872577798406e-03  3.1517566901799921e-03  -2.0778957975797327e-01  9.6354401448314649e-03  4.3772957345864470e-03  -1.2155214636773881e-01  -1.6009420097262381e-01  -2.1327467157702149e-01  -2.1379272037899100e-01  -2.2295091934302128e-01  -2.1772189353399252e-01  -2.2478006954171031e-01  -2.1982195783734315e-01  -2.2646859019589369e-01  -2.2110404936596434e-01  -2.2762001232477616e-01  -2.2194476082979361e-01  -2.2804332883981077e-01  -2.2184574961589118e-01  -2.2765119820232785e-01  -2.2113319412833132e-01  -2.2683210840013093e-01  -2.2021471377761204e-01  -2.2388947442323001e-01  -2.1719147567801025e-01  -2.2121349446425753e-01  -2.1539399444654475e-01  -2.1803394334599127e-01  -2.1243201810411552e-01  -2.1446202408696047e-01  -2.0916084635012436e-01  -2.1066740822962446e-01  -2.0572625331195935e-01  -2.0673817131612204e-01  -2.0204954827709568e-01  -2.0935341131212490e-01  -2.0075105477598168e-01  -1.9732606984450074e-01  -1.9826670461200135e-01  -1.9384442005112307e-01  -1.9448067619100934e-01  -1.9030296768433944e-01  -1.9084540741807049e-01  -1.8676102538451528e-01  -1.8956101062660402e-01  -1.8757552168263084e-01  -1.8322453206285894e-01  -1.8315513155884153e-01  -1.7943252790642872e-01  -1.7929753221136924e-01  -1.7570018978411867e-01  -1.7565365339751277e-01  -1.7208309600505517e-01  -1.7177787299060499e-01  -1.6842010332214280e-01  -2.3062539630127440e-01  -1.6792278098047586e-01  -1.6467774399711696e-01  -1.6492163038324753e-01  -1.6127462789496905e-01  -1.6094263176631579e-01  -1.5759949905075588e-01  -1.5719711930629560e-01  -1.5391444749016275e-01  -2.3273450764281467e-01  -2.1594959862151714e-01  -2.3348522548567799e-01  -2.2681738738495111e-01  -1.5336002080447003e-01  -1.5016707347695446e-01  -1.5060724812565163e-01  -1.4685423318041610e-01  -1.4638472486111800e-01  -1.4308603865633668e-01  -1.4254388995563785e-01  -1.3926704416329072e-01  -1.3978893190983691e-01  -1.3597396021830579e-01  -1.3534866524612973e-01  -1.3210366668964305e-01  -1.7553711110205883e-01  -1.3140076051996538e-01  -1.2823798174416434e-01  -2.1990045555668195e-01  -2.1552776847687627e-01  -1.6151022148388799e-01  -2.1130571372232657e-01  -1.2750722101977346e-01  -1.2426248572421437e-01  -1.2524358556431367e-01  -1.2102490328240202e-01  -1.2034552301460238e-01  -1.1694891779484022e-01  -1.1763624403226455e-01  -1.1355304908744085e-01  -1.1286840676830336e-01  -1.0947578466883340e-01  -1.9481848056208625e-01  -1.0879673180189323e-01  -1.0533218873911808e-01  -1.3627595158461886e-01  -1.7448551918443328e-01  -9.2999004462077789e-02  -1.8655363578268513e-01  -1.0603222325644561e-01  -1.0186469465902986e-01  -1.0117589638796426e-01  -9.7704018175346241e-02  1.1981245528241527e-02  5.8178214080745706e-03  1.3541775698609629e-02  7.0294866618201115e-03  1.4280946071727373e-02  8.1255220560295261e-03  -9.6858599914549939e-02  -9.3429423730585465e-02  -7.1842044817089931e-02  -9.4163863163898201e-02  -8.9913372328388169e-02  -8.9312082914500351e-02  -8.5692704060950364e-02  -2.3222780265162560e-01  -2.1006611609108169e-01  -1.6044929067488156e-01  4.5596057317384892e-04  1.4181551317913642e-02  8.8296614742811308e-03  -1.0894561278003225e-02  -7.5397772292844917e-04  2.8064408443649845e-03  4.8796118874838163e-03  9.0479745416925349e-03  6.6997504055846318e-03  8.5932256312788256e-03  8.0792889792407376e-03  7.5085448606304296e-03  8.8140342627422309e-03  5.8784907041113466e-03  8.9124476667653187e-03  3.8748747891746431e-03  8.4070823074813440e-03  1.7672021517780353e-03  7.5923791002455963e-03  1.5995829246055976e-05  6.7338770212157948e-03  -9.3832663526399621e-04  6.1309240781842501e-03  -9.0098341096609151e-04  5.8560077490179127e-03  -2.9839843139684081e-05  6.0201086437005648e-03  1.6787465086157711e-03  6.42391152659307