<?xml version="1.0"?>
<VTKFile type="UnstructuredGrid"  version="0.1"  >
<UnstructuredGrid>
<Piece  NumberOfPoints="2945" NumberOfCells="5525">
<Points>
<DataArray  type="Float64"  NumberOfComponents="3"  format="ascii">0 0.1 0  0.95 0.1 0  1 0.1 0  1 0 0  1.5 0 0  3 0 0  3 0.3 0  0 0.3 0  0.0197424558707114 0.1 0  0.03915669042224804 0.1 0  0.05824816022699029 0.1 0  0.07702223050332387 0.1 0  0.09548417327144595 0.1 0  0.1136391897583987 0.1 0  0.1314923700144587 0.1 0  0.1490487330862866 0.1 0  0.1663132263225292 0.1 0  0.1832906857273058 0.1 0  0.1999858946008978 0.1 0  0.216403545770297 0.1 0  0.2325482404045023 0.1 0  0.2484245348165176 0.1 0  0.2640368740372501 0.1 0  0.2793896589642241 0.1 0  0.2944872056237027 0.1 0  0.3093337469555254 0.1 0  0.3239334613687816 0.1 0  0.3382904528528069 0.1 0  0.3524087553122972 0.1 0  0.3662923366391824 0.1 0  0.3799451014768399 0.1 0  0.393370886920506 0.1 0  0.4065734648871676 0.1 0  0.419556546320114 0.1 0  0.4323237821343415 0.1 0  0.4448787573056132 0.1 0  0.4572250047274954 0.1 0  0.4693659926332938 0.1 0  0.4813051343276231 0.1 0  0.4930457849308193 0.1 0  0.5045912455271677 0.1 0  0.5159447600209797 0.1 0  0.5271095174127136 0.1 0  0.5380886618453393 0.1 0  0.5488852725463512 0.1 0  0.5595023868312478 0.1 0  0.5699429904313016 0.1 0  0.5802100167387366 0.1 0  0.5903063508274641 0.1 0  0.6002348329443006 0.1 0  0.6099982499579832 0.1 0  0.6195993483501782 0.1 0  0.6290408246013842 0.1 0  0.6383253354321616 0.1 0  0.6474554910757137 0.1 0  0.6564338522440513 0.1 0  0.6652629482939147 0.1 0  0.6739452579188948 0.1 0  0.6824832240165607 0.1 0  0.6908792415022103 0.1 0  0.6991356755989045 0.1 0  0.7072548438546967 0.1 0  0.7152390281534421 0.1 0  0.7230904746196039 0.1 0  0.7308113906759266 0.1 0  0.7384039435269326 0.1 0  0.7458702676581656 0.1 0  0.7532124631720397 0.1 0  0.7604325921167397 0.1 0  0.7675326856666862 0.1 0  0.7745147374421916 0.1 0  0.7813807123989068 0.1 0  0.7881325374362798 0.1 0  0.7947721131625659 0.1 0  0.8013013031866276 0.1 0  0.8077219449067021 0.1 0  0.8140358419942376 0.1 0  0.8202447685401882 0.1 0  0.8263504700910924 0.1 0  0.8323546643163114 0.1 0  0.8382590362474568 0.1 0  0.8440652473522128 0.1 0  0.8497749272799842 0.1 0  0.8553896837646281 0.1 0  0.8609110933285474 0.1 0  0.866340708855119 0.1 0  0.8716800550492284 0.1 0  0.8769306339052932 0.1 0  0.8820939206038667 0.1 0  0.8871713655604893 0.1 0  0.8921643975475726 0.1 0  0.8970744196575535 0.1 0  0.9019028106970642 0.1 0  0.9066509291259979 0.1 0  0.9113201098984042 0.1 0  0.9159116634553873 0.1 0  0.9204268818729691 0.1 0  0.9248670319440222 0.1 0  0.9292333656649013 0.1 0  0.9335271075812669 0.1 0  0.9377494640511216 0.1 0  0.941901623463222 0.1 0  0.9459847526686701 0.1 0  0.9538461538461205 0.1 0  0.9576923076922409 0.1 0  0.9615384615384381 0.1 0  0.9653846153846337 0.1 0  0.9692307692307542 0.1 0  0.9730769230768747 0.1 0  0.9769230769229952 0.1 0  0.9807692307691157 0.1 0  0.9846153846152361 0.1 0  0.9884615384614317 0.1 0  0.9923076923076356 0.1 0  0.9961538461538395 0.1 0  1 0.09591793123533533 0  1 0.09133596463859224 0  1 0.08619288104391448 0  1 0.08041996484521211 0  1 0.07394008421771697 0  1 0.06666666567302955 0  1 0.05850252932209174 0  1 0.04933859630113544 0  1 0.03905242821848202 0  1 0.02750659386753798 0  1 0.01454683679239736 0  1.015625 0 0  1.03125 0 0  1.046875 0 0  1.0625 0 0  1.078125 0 0  1.09375 0 0  1.109375 0 0  1.125 0 0  1.140625 0 0  1.15625 0 0  1.171875 0 0  1.1875 0 0  1.203125 0 0  1.21875 0 0  1.234375 0 0  1.25 0 0  1.265625 0 0  1.28125 0 0  1.296875 0 0  1.3125 0 0  1.328125 0 0  1.34375 0 0  1.359375 0 0  1.375 0 0  1.390625 0 0  1.40625 0 0  1.421875 0 0  1.4375 0 0  1.453125 0 0  1.46875 0 0  1.484375 0 0  1.515920751924515 0 0  1.531989369316721 0 0  1.54820720925872 0 0  1.564575665560501 0 0  1.581096138674279 0 0  1.597770029901263 0 0  1.614598783332311 0 0  1.631583831055205 0 0  1.64872661129721 0 0  1.666028606716533 0 0  1.683491276608443 0 0  1.701116134125304 0 0  1.718904673324128 0 0  1.736858414799339 0 0  1.754978895814663 0 0  1.773267661782904 0 0  1.791726281103402 0 0  1.810356325314689 0 0  1.8291593848892 0 0  1.848137076690385 0 0  1.867291007717254 0 0  1.886622833871288 0 0  1.90613418642363 0 0  1.925826753299799 0 0  1.945702199101513 0 0  1.96576223584749 0 0  1.986008569283268 0 0  2.006442931928877 0 0  2.02706707547783 0 0  2.047882750887917 0 0  2.06889175187935 0 0  2.090095860038271 0 0  2.111496891648636 0 0  2.133096679109554 0 0  2.154897066851056 0 0  2.176899916687499 0 0  2.199107102752146 0 0  2.22152053937028 0 0  2.244142122958061 0 0  2.266973806444078 0 0  2.290017523268154 0 0  2.313275249499252 0 0  2.336748971745516 0 0  2.360440702338606 0 0  2.384352453384031 0 0  2.408486280477412 0 0  2.432844240041185 0 0  2.457428414757088 0 0  2.482240901796653 0 0  2.507283830121838 0 0  2.532559332080812 0 0  2.558069568787417 0 0  2.583816724966441 0 0  2.60980299606584 0 0  2.636030600971886 0 0  2.662501790984011 0 0  2.689218818279327 0 0  2.716183964547616 0 0  2.743399548861297 0 0  2.77086788244719 0 0  2.798591312896326 0 0  2.826572223178268 0 0  2.854812990138617 0 0  2.883316031690714 0 0  2.912083780657189 0 0  2.941118704633482 0 0  2.970423276998917 0 0  3 0.02999999999994495 0  3 0.05999999999987042 0  3 0.089999999999783 0  3 0.119999999999701 0  3 0.149999999999619 0  3 0.179999999999692 0  3 0.2099999999997737 0  3 0.2399999999998511 0  3 0.2699999999999185 0  2.970138294777171 0.3 0  2.940375666438236 0.3 0  2.910711782853056 0.3 0  2.881146331305122 0.3 0  2.851678975030285 0.3 0  2.822309388626621 0.3 0  2.793037250095074 0.3 0  2.76386223529133 0.3 0  2.734784017903872 0.3 0  2.705802289276642 0.3 0  2.676916713794697 0.3 0  2.648126987654635 0.3 0  2.619432780406184 0.3 0  2.590833779385199 0.3 0  2.562329669847737 0.3 0  2.533920134950189 0.3 0  2.505604855727852 0.3 0  2.477383539822502 0.3 0  2.449255847639465 0.3 0  2.421221492569094 0.3 0  2.393280152486815 0.3 0  2.36543151914496 0.3 0  2.337675285481809 0.3 0  2.310011142385583 0.3 0  2.282438797441587 0.3 0  2.254957931061538 0.3 0  2.227568248063605 0.3 0  2.200269436651085 0.3 0  2.173061204949961 0.3 0  2.145943251515011 0.3 0  2.118915272469994 0.3 0  2.091976978084957 0.3 0  2.065128060700849 0.3 0  2.038368218849433 0.3 0  2.01169717777258 0.3 0  1.985114624111908 0.3 0  1.958620267850966 0.3 0  1.93221382054972 0.3 0  1.905894991850698 0.3 0  1.879663489459713 0.3 0  1.853519019126419 0.3 0  1.827461291053897 0.3 0  1.801490031354372 0.3 0  1.775604937580312 0.3 0  1.74980572560258 0.3 0  1.724092118631866 0.3 0  1.698463829173586 0.3 0  1.672920575782554 0.3 0  1.647462076974085 0.3 0  1.622088043536933 0.3 0  1.5967981978949 0.3 0  1.571592267767068 0.3 0  1.546469970305736 0.3 0  1.521431023814044 0.3 0  1.496475156230927 0.3 0  1.471602093687753 0.3 0  1.446811560490646 0.3 0  1.422103279101731 0.3 0  1.397476971708191 0.3 0  1.37293238939876 0.3 0  1.348469231419202 0.3 0  1.324087248732772 0.3 0  1.299786165921677 0.3 0  1.275565710847046 0.3 0  1.251425617644257 0.3 0  1.227365618676339 0.3 0  1.203385446174014 0.3 0  1.179484853067473 0.3 0  1.155663548773374 0.3 0  1.131921292279077 0.3 0  1.108257802159295 0.3 0  1.084672829009693 0.3 0  1.061166115303374 0.3 0  1.037737392995421 0.3 0  1.01438640299116 0.3 0  0.991112899770314 0.3 0  0.9679166155523955 0.3 0  0.944797284182564 0.3 0  0.921754678526042 0.3 0  0.8987885143602501 0.3 0  0.8758985548820624 0.3 0  0.8530845484099929 0.3 0  0.8303462351786988 0.3 0  0.8076833651172373 0.3 0  0.7850956864865304 0.3 0  0.7625829601354557 0.3 0  0.7401449314598274 0.3 0  0.717781337993959 0.3 0  0.6954919649675473 0.3 0  0.6732765357561226 0.3 0  0.6511348120768439 0.3 0  0.6290665642016573 0.3 0  0.6070715355430467 0.3 0  0.5851494825775325 0.3 0  0.5633001690203812 0.3 0  0.5415233562273221 0.3 0  0.5198187909431873 0.3 0  0.4981862401387795 0.3 0  0.4766254686134248 0.3 0  0.4551362360485234 0.3 0  0.4337182975262159 0.3 0  0.4123714223228037 0.3 0  0.3910953802377493 0.3 0  0.3698899313205595 0.3 0  0.3487548463710963 0.3 0  0.3276898864081783 0.3 0  0.3066948129116018 0.3 0  0.2857694003037476 0.3 0  0.2649134227095047 0.3 0  0.2441266417321288 0.3 0  0.2234088223399122 0.3 0  0.2027597568977288 0.3 0  0.1821792020676698 0.3 0  0.1616669305402443 0.3 0  0.1412227158799362 0.3 0  0.12084633013886 0.3 0  0.1005375673448281 0.3 0  0.08029618164595353 0.3 0  0.06012194778526769 0.3 0  0.04001466495039718 0.3 0  0.01997408913631205 0.3 0  0 0.2800000000000553 0  0 0.2600000000001105 0  0 0.2400000000001658 0  0 0.2200000000002211 0  0 0.2000000000002764 0  0 0.1800000000002244 0  0 0.1600000000001691 0  0 0.140000000000115 0  0 0.1200000000000564 0  1.133778471000506 0.01219539743990768 0  1.003741919047894 0.09354664821474232 0  0.9559421147150347 0.1035858189992458 0  0.9313792160389045 0.1037365237938103 0  0.9788461538460573 0.1033060829993555 0  0.9090102438250753 0.1037269304984056 0  0.8846304212778655 0.1043349840723655 0  0.8581503885465881 0.104741932962923 0  0.8286416220145676 0.1052762843984476 0  0.7982741772533339 0.1053575624517407 0  0.7708789559342691 0.1060290465840416 0  0.741870349714261 0.1078220590984258 0  0.7112469360040695 0.10685702926368 0  0.6783901541417233 0.1079959711853378 0  0.642884733623195 0.1075561996086514 0  0.6056235042367955 0.1085956039602543 0  0.5647007593786924 0.1083187281660325 0  1.1953125 0.01353164693413185 0  1.258148737344733 0.01268350115427042 0  1.320087046516829 0.01426312402966312 0  1.383495130751951 0.01432665475473204 0  1.4453125 0.01315663539200989 0  1.50886768312388 0.01395488397722681 0  0.9942307692307371 0.103330866937657 0  1.119309781943483 0.2802014914557878 0  1.572831235329714 0.01707210522554785 0  1.637611634353954 0.01209340368483431 0  1.709661292005932 0.0146870244871893 0  1.006561890631532 0.07068055446055937 0  1.784793444007901 0.01499371444634687 0  1.855459587353174 0.0
[...]
<PointData  Scalars="pressure"> 
<DataArray  type="Float64"  Name="pressure"  format="ascii">1.7928993988207775e-01  -1.4596373507007751e-01  -1.1798440342813975e-01  -6.2453507029803235e-02  3.8120129829898805e-02  0.0000000000000000e+00  0.0000000000000000e+00  1.7930816578654263e-01  1.7336722086310860e-01  1.6754277034500475e-01  1.6181489490705181e-01  1.5618195737852142e-01  1.5064231087523727e-01  1.4519440474841819e-01  1.3983665293846043e-01  1.3456748320363296e-01  1.2938544355994172e-01  1.2428891127741579e-01  1.1927642097786191e-01  1.1434656069091141e-01  1.0949778877070601e-01  1.0472870820849597e-01  1.0003781808919268e-01  9.5423745014877312e-02  9.0884980320714889e-02  8.6420215703744585e-02  8.2027939864006430e-02  7.7706869664389069e-02  7.3455408861367505e-02  6.9272313533566179e-02  6.5156463387217298e-02  6.1105921739928577e-02  5.7119626464937782e-02  5.3196045733043748e-02  4.9334002075039414e-02  4.5531896445850151e-02  4.1788404675771142e-02  3.8102116794196839e-02  3.4471652548765407e-02  3.0895943237837387e-02  2.7372840324339655e-02  2.3901361071210797e-02  2.0480156112329239e-02  1.7107728894736478e-02  1.3782453066485657e-02  1.0503154452977682e-02  7.2681912372586964e-03  4.0762656528564528e-03  9.2564421538115008e-04  -2.1849763918955919e-03  -5.2570544829767538e-03  -8.2920317326495852e-03  -1.1291614387428617e-02  -1.4257009414236251e-02  -1.7190104888532540e-02  -2.0092090962385858e-02  -2.2964572748359897e-02  -2.5809511706189895e-02  -2.8627643272947229e-02  -3.1421251206823098e-02  -3.4191965394652822e-02  -3.6939892152122761e-02  -3.9667990397611666e-02  -4.2377652652310457e-02  -4.5069798264726853e-02  -4.7747990223417816e-02  -5.0410989335204798e-02  -5.3060797832861821e-02  -5.5700820689787524e-02  -5.8331509856145887e-02  -6.0955791904904119e-02  -6.3572688576133532e-02  -6.6184280297857806e-02  -6.8794860607681141e-02  -7.1403973900817805e-02  -7.4013929317351929e-02  -7.6626304675701071e-02  -7.9243126231141839e-02  -8.1865590213605482e-02  -8.4496439116888825e-02  -8.7136158142508510e-02  -8.9787238776576142e-02  -9.2453377373908643e-02  -9.5135569335873180e-02  -9.7835460992361983e-02  -1.0055705340477245e-01  -1.0330202350772882e-01  -1.0607312894453344e-01  -1.0887312084598168e-01  -1.1171017228037007e-01  -1.1458269608617622e-01  -1.1749755778736726e-01  -1.2045780505242715e-01  -1.2347999053345196e-01  -1.2655138606502378e-01  -1.2962455880094023e-01  -1.3356090039985996e-01  -1.3258867294283103e-01  -1.5684960812409993e-01  -1.2101520837113321e-01  -1.5071706578845853e-01  -1.4896286547558935e-01  -1.5571281510745708e-01  -1.6345535874268188e-01  -1.7621860702842737e-01  -1.7988827380282060e-01  -1.7846123897720897e-01  -1.7257047993053362e-01  -1.6361591560338362e-01  -1.5254313467753985e-01  -1.4040176244820207e-01  -1.2797942543197319e-01  -1.1591759090043736e-01  -1.0657427663601886e-01  -8.7363386464588716e-02  -1.1188944697658514e-01  -8.8447118873315092e-02  -8.0686536082768087e-02  -7.4862856704157446e-02  -7.0912161212458344e-02  -6.7887048398620004e-02  -6.5498315190514786e-02  -6.3715705651541651e-02  -6.2524845754647257e-02  -6.1966607607861802e-02  -6.2128549738015446e-02  -6.2858939051787910e-02  -6.2895345533332203e-02  -6.2129016648692151e-02  -6.0718596516350032e-02  -5.8803545684796489e-02  -5.6532792728291446e-02  -5.4015589715789306e-02  -5.1342260915364729e-02  -4.8660802652337652e-02  -4.6092523829036641e-02  -4.3736903206055937e-02  -4.1674157215335843e-02  -3.9957490689875252e-02  -3.8614128899460906e-02  -3.7638642080696949e-02  -3.6966468750210264e-02  -3.6500183924503798e-02  -3.6139384835186278e-02  -3.5719814610030279e-02  -3.4952903986773184e-02  -3.3875082880723793e-02  -3.1998619709407629e-02  -2.9334964400189751e-02  -2.5659739909318146e-02  -2.0931789560371138e-02  -1.4947385087221123e-02  -7.9103952390704151e-03  1.5395378012879598e-04  9.0337927130289195e-03  1.8509137003144088e-02  2.8302702407460478e-02  4.7848190782036774e-02  5.7075354136304345e-02  6.5565958050497988e-02  7.3010592584095826e-02  7.9380533157790686e-02  8.4449602601840423e-02  8.8230663236904053e-02  9.0679540941304093e-02  9.1796609602273399e-02  9.1736833286866673e-02  9.0625333818426343e-02  8.8597596424024538e-02  8.5792566057364836e-02  8.2413492996185680e-02  7.8635973853036348e-02  7.4674655822926483e-02  7.0744257817337536e-02  6.7137294676362619e-02  6.3894226051979044e-02  6.1434148266085099e-02  5.9790659108732970e-02  5.9099284714145300e-02  5.9429856281775585e-02  6.0706056678607706e-02  6.2830099655884777e-02  6.5591222929783699e-02  6.8679736290126026e-02  7.1905952181798988e-02  7.4927897508420424e-02  7.7471451532435509e-02  7.9349422262007099e-02  8.0403771526524392e-02  8.0555474434254051e-02  7.9787426807521114e-02  7.8114663301118589e-02  7.5627915430883430e-02  7.2410796529008212e-02  6.8589399223206921e-02  6.4262034187036521e-02  5.9570935100140159e-02  5.4667288854023964e-02  4.9743569168701221e-02  4.5028594767129608e-02  4.0804865688881253e-02  3.7356041131691324e-02  3.4953719328098376e-02  3.3780817402615917e-02  3.3879119181274391e-02  3.5118635300811378e-02  3.7244108727045595e-02  3.9917349328785906e-02  4.2471470449115360e-02  4.4696821656372322e-02  4.6018355325728962e-02  4.6190176438992640e-02  4.5116488427640204e-02  4.2820299263929038e-02  3.9272775604837058e-02  3.4824607351003845e-02  2.9637663439408619e-02  2.3991720989803074e-02  1.8072949971839784e-02  1.2417378109105153e-02  7.2679915548703490e-03  3.2352385737068091e-03  5.0947039114080099e-04  -4.4512157036332643e-04  0.0000000000000000e+00  0.0000000000000000e+00  0.0000000000000000e+00  0.0000000000000000e+00  0.0000000000000000e+00  0.0000000000000000e+00  0.0000000000000000e+00  0.0000000000000000e+00  0.0000000000000000e+00  6.2793917517150796e-03  1.0792626314793486e-02  1.3688847932532883e-02  1.4905055341784565e-02  1.4669640129838594e-02  1.3504933666927930e-02  1.2023556925346887e-02  1.0918318201927844e-02  1.0841026582097658e-02  1.2270344433753055e-02  1.5426796833789676e-02  2.0240284296750965e-02  2.6387445090652224e-02  3.3397813533356038e-02  4.0744852069977758e-02  4.7946060351460214e-02  5.4605491488381112e-02  6.0362539226571900e-02  6.4938214752671156e-02  6.8058522055697832e-02  6.9499477529455733e-02  6.9115118531628453e-02  6.6910968378274316e-02  6.3106288370644123e-02  5.8107759448130777e-02  5.2605056074258610e-02  4.7386551182034907e-02  4.3204724758925020e-02  4.0738272340272080e-02  4.0324137114387003e-02  4.2006090662644650e-02  4.5418740257990177e-02  5.0217707298158519e-02  5.5534764072094775e-02  6.0962356822793731e-02  6.6045273212493080e-02  7.0231596950854097e-02  7.3306175274834615e-02  7.4973996007995869e-02  7.5204399516014042e-02  7.3769256618539100e-02  7.0616333901312334e-02  6.5869445666376591e-02  5.9670078466457090e-02  5.2337780741093277e-02  4.4347330757007551e-02  3.6258957310467396e-02  2.8659050744513845e-02  2.1984391992744309e-02  1.6571496040666215e-02  1.2586404220524459e-02  9.8862284999172694e-03  8.3072427257181291e-03  7.2892677364817431e-03  6.5939555224391964e-03  5.8363292342897303e-03  4.7803184399216906e-03  3.2454109442150315e-03  1.1552683017175679e-03  -1.5449125737560074e-03  -4.8498382594652232e-03  -8.7414089233897405e-03  -1.3097442502578532e-02  -1.7897559488625019e-02  -2.3016367829803340e-02  -2.8330002629914825e-02  -3.3728680304293344e-02  -3.9087896698607738e-02  -4.4287820168692899e-02  -4.9243291860970102e-02  -5.3779056238161108e-02  -5.7939546103735626e-02  -6.1602361519577160e-02  -6.4674805635232785e-02  -6.6961657108516440e-02  -6.8597761008637514e-02  -6.9329036123340737e-02  -6.9235800565275799e-02  -6.8470169303823755e-02  -6.6630863939844714e-02  -6.4055320366553190e-02  -6.0772724931660478e-02  -5.6949899699607572e-02  -5.2617122625185545e-02  -4.7829643941994314e-02  -4.2676011348761873e-02  -3.7262807705160092e-02  -3.1624589729868091e-02  -2.5780684875808313e-02  -1.9811910257444852e-02  -1.3722270367427521e-02  -7.5532514861936283e-03  -1.3196647227692539e-03  4.9656557984448738e-03  1.1287977411813950e-02  1.7630443274867926e-02  2.3989550701549154e-02  3.0357681700822238e-02  3.6728194824809449e-02  4.3094833796655810e-02  4.9454822667976434e-02  5.5807641825538920e-02  6.2148359314625763e-02  6.8476268024853418e-02  7.4789117008757094e-02  8.1086568515824631e-02  8.7367528653284232e-02  9.3630339162272994e-02  9.9875829814014314e-02  1.0610221627968998e-01  1.1231006446546291e-01  1.1849877087333391e-01  1.2466797265796026e-01  1.3081788189106205e-01  1.3694813712046913e-01  1.4305873918024387e-01  1.4914963944540052e-01  1.5522081250616904e-01  1.6127225874387963e-01  1.6730397046804066e-01  1.7331593996961631e-01  1.7930811494427853e-01  1.7930736403692835e-01  1.7930549221790704e-01  1.7930258877816779e-01  1.7929905707865612e-01  1.7929553099388826e-01  1.7929261677747688e-01  1.7929075928524960e-01  1.7929000508230872e-01  -4.9717779667647365e-02  -9.1811529949405515e-02  -1.7339444154691408e-01  -1.4000222704244492e-01  -1.4409777692542197e-01  -1.2531831360387441e-01  -1.1050401165816359e-01  -9.6643732817328909e-02  -8.2992058824098228e-02  -7.0282392538949620e-02  -5.9661163548965633e-02  -4.9049422665258094e-02  -3.8347173383423049e-02  -2.7311622606959518e-02  -1.5744816179615814e-02  -3.8976701571061937e-03  8.8817390031339146e-03  -4.0637114596263901e-02  -3.6415659018956610e-02  -3.4181997195389564e-02  -2.3279574551728206e-02  3.8842261530407035e-03  4.2611326859733498e-02  -1.0019208243703012e-01  -5.1133387593044304e-02  7.5431078443876948e-02  9.0705280416087108e-02  8.7251390002414747e-02  -7.0020148771883603e-02  7.2355275117624129e-02  6.0677311666004860e-02  2.2076543558088208e-02  6.1248466062800891e-02  -3.0520038432008421e-02  -1.0120465462948633e-02  7.3523878274328422e-02  2.9415274632882508e-03  3.6493551774173315e-02  8.0527230605393699e-03  8.0416155207808995e-02  5.0598396222166712e-02  -5.7323429183589250e-02  7.4256774104831155e-02  2.4873806600689066e-02  -6.2416809027255230e-02  6.6751722888128875e-02  5.7465488496561808e-02  6.8247353728243351e-02  8.4519452316247606e-02  7.5367730635796840e-02  3.9100212528807757e-02  6.8303012723800641e-02  -6.8791423239858221e-02  3.4171419846282178e-02  1.0238263767592655e-01  5.3021534456284380e-02  -6.5083459628666879e-02  -5.4259528845669716e-02  4.0731930025034800e-02  4.3251245202235070e-02  1.2227988531792275e-01  1.3708428414098006e-01  4.7945862712396765e-02  4.5852009851535681e-02  3.6950707032543557e-02  -3.4685900689724110e-02  4.4607460641101160e-02  6.4952686071758831e-02  -1.6516928486812125e-02  -1.5238998932392542e-01  -1.7420196320377537e-01  1.6616190811596407e-03  6.8987080880995963e-02  2.1612688322287518e-02  2.6310275289318723e-02  5.1757259090396981e-02  5.8804567152952333e-02  3.0160415634997835e-02  9.0499706843844119e-02  1.3429911899316612e-02  1.0910477966897313e-01  1.4597369601421201e-01  1.2788829425812279e-01  1.0804255747280108e-02  1.7425551803745751e-01  3.5595204909952740e-03  1.5360170338568932e-01  -6.3640066992117619e-02  1.4578982246656982e-02  4.9049351515621240e-03  -7.7104150195549143e-02  -6.1106306919455233e-02  -6.7017618350560443e-02  -4.1349981331454191e-02  -4.5337163730748198e-02  1.4507883989881839e-02  3.9608433522473348e-02  7.2371334763812731e-02  1.1300737350101170e-02  6.0076325950416919e-03  -2.1634119094073750e-03  -1.9869543230303814e-02  1.1192171611454442e-01  9.3234783277921743e-02  5.4654711912081641e-02  6.3069684806284596e-02  7.6044932584114849e-02  3.7882441147184039e-02  1.5814990025746117e-01  3.4039017698935595e-02  4.7639571843798717e-02  5.8805045538452859e-02  6.6742863513684775e-02  1.7422667101077982e-01  7.9089034089478510e-02  4.3756933810007288e-02  7.7882957363397037e-02  6.6971259998323263e-02  6.0476080845656144e-02  5.8904143004149340e-02  2.8993917665340804e-02  6.5517845556772258e-02  8.0625263320394935e-02  9.1106491265642645e-02  1.5323514477550306e-02  8.5998635344321062e-02  -1.0948021420974757e-03  2.4898321693675863e-03  -9.8499326470622966e-03  -2.1800466863910874e-02  -3.2524118734112248e-02  -4.3951025462613612e-02  -5.4457892296844349e-02  -6.5220558769514062e-02  -7.8035398883143786e-02  -4.4651553156276766e-02  -9.1253842892188908e-02  -1.0495624807514245e-01  -1.1924632596217589e-01  -3.7879344986207486e-02  -1.3513784165678894e-01  -3.0736026462342542e-02  -3.5549128389679947e-02  -1.2936995211712073e-02  2.2550064147889792e-02  1.7464648245509262e-01  -1.1953082022855079e-01  6.7832980311689495e-03  1.6464015189176645e-01  1.2599430897171157e-02  -6.2495745004441355e-02  -1.2635916444848044e-03  1.7478464721754217e-01  -6.2078461599968493e-02  -6.1669054745330451e-02  -6.0643005805294976e-02  -6.1655050905161539e-02  -6.0569469813155315e-02  -6.1894808653937698e-02  -6.0558586343478389e-02  -6.2145752474131170e-02  -6.0526276676442926e-02  -6.2120269244816645e-02  -6.0133381315635837e-02  -6.1532322336829877e-02  -5.9115086240286212e-02  -6.0244991473392670e-02  -5.7465107399010701e-02  -5.8456617233200808e-02  -5.5297320875667251e-02  -5.6448938815749201e-02  -5.3157302591346427e-02  -5.4695895722998746e-02  -5.1196877977245162e-02  -5.8325401223151108e-02  -4.9511917973715923e-02  -4.7593758358678913e-02  -5.6834969992411825e-02  -6.0931922092054017e-02  -4.5690320502445689e-02  -4.3949903361492342e-02  -4.2331963730190235e-02  -4.0651786151292987e-02  -3.9022080920840779e-02  -3.7756833114462540e-02  -3.6278942567299396e-02  -3.5440525889904984e-02  -3.4121747608374380e-02  -3.3655458448846098e-02  -3.2708380244003944e-02  -3.2277990999953113e-02  -3.2031463276868177e-02  -3.1578100629125049e-02  -3.2033082033737482e-02  -3.1023768140589172e-02  -3.2431352107499360e-02  -3.1010962932970076e-02  -3.2977656009268538e-02  -3.0674730734484686e-02  -3.3254343942764393e-02  -2.9723882662538198e-02  -3.2811734627937843e-02  -2.7993340354585748e-02  -3.0991640331329513e-02  -5.9399548836672721e-02  -6.3721873937500714e-02  -2.5221075955201629e-02  -2.8446954754883669e-02  -2.1446955204328284e-02  -2.3306055098270287e-02  -1.6261611279214869e-02  -1.7381140120961727e-02  -1.0147074797968921e-02  -9.8779520101486395e-03  -3.2976807898625355e-03  -1.2831304906722660e-03  -4.6178919756258402e-02  3.8726196529584494e-03  7.9249204680234917e-03  1.1053933780121320e-02  1.7127133639876804e-02  1.7759644566068562e-02  2.5857639529957961e-02  -6.2137068853432585e-02  -6.6820434069873175e-02  -6.2815525862199351e-02  2.3812296132777650e-02  3.3792761631442819e-02  -6.5526536821962952e-02  2.9287979502909674e-02  4.0686968621213418e-02  3.3699777471797795e-02  4.6348517680560454e-02  3.7542925061671652e-02  5.0877588468357965e-02  -3.7244899159023619e-02  4.0122365965315064e-02  5.4264724009294524e-02  4.3429703954831950e-02  5.7031359895336017e-02  4.6282675055567365e-02  5.9114340376291361e-02  -5.6251219234166955e-02  -3.1463532955749898e-02  4.9191680771305202e-02  6.0733096533457265e-02  -6.4715886643091178e-02  -7.0380088333032151e-02  -6.0255132027675386e-02  -2.7804678798452206e-02  5.1390790734798068e-02  6.2187322064724361e-02  5.4528534985468786e-02  6.3392661335527886e-02  5.7787700507284177e-02  6.4347705478812717e-02  3.5731150467627495e-02  7.1436999464075779e-02  5.9626630126966326e-02  3.0752132955819815e-03  6.1072609871389343e-02  6.5291310316120857e-02  6.8496611236286184e-02  6.7254159052033677e-02  6.6207997909008248e-02  6.6134684297988355e-02  6.7055974018058365e-02  6.5224352456623474e-02  6.7808798737790596e-02  6.4688523850204377e-02  6.8481269616910978e-02  6.4525734354693789e-02  6.8958554833931637e-02  6.4686092610148113e-02  6.9325998646045967e-02  6.5105994230141170e-02  6.9209661519240712e-02  6.5373541492346601e-02  6.8620486850456311e-02  6.5715985177048256e-02  6.7481565489344045e-02  6.5681271469393926e-02  6.5625507552293211e-02  6.5132007358359487e-02  -2.3267248401836527e-02  -2.1384124348010340e-02  6.3021077025868094e-02  6.3986274696643766e-02  5.9916180358530420e-02  6.2226591649033568e-02  -3.7842134887259980e-02  5.6429771438083483e-02  6.0164878933947605e-02  -3.4655557260775342e-02  -3.2158306192119186e-02  -6.6868621581374799e-02  -7.1416164435576412e-02  -7.6545395665988183e-02  -7.7895332779438803e-02  -8.3474812543556320e-02  -8.4390379545300404e-02  -9.0816148285619694e-02  -9.0699699426669667e-02  -9.8419345113893636e-02  -9.6584794473693017e-02  -1.0535860475971698e-01  -1.0141936499709139e-01  -1.1110230363699825e-01  -1.0543088100306561e-01  -1.1634881662058746e-01  -1.0885242541423040e-01  -1.1683390707570981e-01  -1.0854986767553125e-01  -1.1657551039301818e-01  -1.0933654528717829e-01  -1.1508573475047697e-01  -1.0782277930726827e-01  -1.1243258064016885e-01  -1.0543251982723885e-01  -1.0903917488378523e-01  -1.0247524358122101e-01  -1.0521390654400092e-01  -9.9043525694557169e-02  -1.0203444665764670e-01  -9.5938375899868825e-02  -9.2865152479656973e-02  -9.5327840791782539e-02  -8.9584214597544606e-02  -9.1463519902233836e-02  -8.6113940125914695e-02  -8.7660099505528305e-02  -8.2558054184872970e-02  -8.4096766310061438e-02  -8.4371756585271379e-02  -7.8959543001018720e-02  -7.9605001773233319e-02  -7.5045912955240490e-02  -7.4078070933726939e-02  -7.0480546313435671e-02  -7.1133681581544733e-02  -6.6836029744124489e-02  -6.7079637198189865e-02  -6.3103574102487223e-02  -8.8608795452831970e-02  -6.3049374265816971e-02  -5.9288808455639580e-02  -5.8963830059813239e-02  -5.5332737331026512e-02  -5.5487043919421108e-02  -5.1653487772199691e-02  -5.1662913002058525e-02  -4.7944268627665897e-02  -1.2115574584383296e-01  -1.0106110667492180e-01  -1.0690771695891035e-01  -1.2388131539770073e-01  -4.7789568443751845e-02  -4.4169703679506907e-02  -4.4212361851386668e-02  -4.0479192802055093e-02  -4.0343201285610752e-02  -3.6718206090901463e-02  -3.6450407927638401e-02  -3.2890685531945810e-02  -3.3112433264675591e-02  -2.9340579133034290e-02  -2.8961860961205062e-02  -2.5492302796356836e-02  -6.9421642622396057e-02  -2.4993221232692871e-02  -2.1635213513511040e-02  -1.1970329668537179e-01  -8.8252916994233946e-02  -5.4948072744770898e-02  -1.1130292528904076e-01  -2.1072222836640168e-02  -1.7655193104034749e-02  -1.8456725126182190e-02  -1.4254750204518978e-02  -1.3733228039547716e-02  -1.0194951725884955e-02  -1.0718272597479357e-02  -6.6715055524304472e-03  -6.1224717009877635e-03  -2.6194923744032447e-03  -9.2686353542006855e-02  -2.0512252108802016e-03  1.5085209204993267e-03  -2.9345094534100183e-02  -7.0327104761498657e-02  -8.7468555878433846e-03  -8.3790020073313751e-02  9.2133647788851406e-04  5.0603377540123905e-03  5.6556612331416832e-03  9.2009928129383710e-03  5.2755188552402237e-02  5.7782535066732282e-02  4.9503883412111024e-02  5.5642854025572168e-02  4.7066202532712154e-02  5.3893839533317153e-02  9.9698563850578667e-03  1.3462313788559091e-02  1.6225956134718483e-02  1.2804341672730729e-02  1.7034095073544264e-02  1.7572725441605510e-02  2.1240462052651690e-02  -6.3458032027435718e-02  -7.3991235698142588e-02  -5.5365164617533463e-02  6.0348520781139676e-02  4.5696887291329417e-02  5.2837641327591729e-02  7.0341512217756877e-02  6.5722373584018501e-02  6.1754552322844193e-02  6.0249659248802233e-02  5.2477045022087963e-02  5.8960624236094022e-02  5.2862582357867199e-02  5.7789012155444991e-02  5.3667972838776480e-02  5.6614724799712225e-02  5.4718897762177580e-02  5.5400515883327610e-02  5.5713624221525260e-02  5.4052316862325457e-02  5.6540285193128523e-02  5.2623998643179785e-02  5.6997450156657276e-02  5.1156773765804325e-02  5.6926207344917143e-02  4.9727098552996583e-02  5.6259850531641398e-02  4.8400313705991155e-02  5.5296105828482253e-02  4.7290295373282609e-02  5.3924745019936986e-02  4.6269814129139768e-02  2.1795529824042790e-02  2.5478384562552626e-02  2.5182808133955532e-02  2.9285988091848271e-02  2.9790257075368785e-02  3.3545770943195413e-02  5.1924329212635428e-02  4.5206145940333856e-02  4.8927757973767340e-02  4.3878363446