<?xml version="1.0"?>
<VTKFile type="UnstructuredGrid"  version="0.1"  >
<UnstructuredGrid>
<Piece  NumberOfPoints="2945" NumberOfCells="5525">
<Points>
<DataArray  type="Float64"  NumberOfComponents="3"  format="ascii">0 0.1 0  0.95 0.1 0  1 0.1 0  1 0 0  1.5 0 0  3 0 0  3 0.3 0  0 0.3 0  0.0197424558707114 0.1 0  0.03915669042224804 0.1 0  0.05824816022699029 0.1 0  0.07702223050332387 0.1 0  0.09548417327144595 0.1 0  0.1136391897583987 0.1 0  0.1314923700144587 0.1 0  0.1490487330862866 0.1 0  0.1663132263225292 0.1 0  0.1832906857273058 0.1 0  0.1999858946008978 0.1 0  0.216403545770297 0.1 0  0.2325482404045023 0.1 0  0.2484245348165176 0.1 0  0.2640368740372501 0.1 0  0.2793896589642241 0.1 0  0.2944872056237027 0.1 0  0.3093337469555254 0.1 0  0.3239334613687816 0.1 0  0.3382904528528069 0.1 0  0.3524087553122972 0.1 0  0.3662923366391824 0.1 0  0.3799451014768399 0.1 0  0.393370886920506 0.1 0  0.4065734648871676 0.1 0  0.419556546320114 0.1 0  0.4323237821343415 0.1 0  0.4448787573056132 0.1 0  0.4572250047274954 0.1 0  0.4693659926332938 0.1 0  0.4813051343276231 0.1 0  0.4930457849308193 0.1 0  0.5045912455271677 0.1 0  0.5159447600209797 0.1 0  0.5271095174127136 0.1 0  0.5380886618453393 0.1 0  0.5488852725463512 0.1 0  0.5595023868312478 0.1 0  0.5699429904313016 0.1 0  0.5802100167387366 0.1 0  0.5903063508274641 0.1 0  0.6002348329443006 0.1 0  0.6099982499579832 0.1 0  0.6195993483501782 0.1 0  0.6290408246013842 0.1 0  0.6383253354321616 0.1 0  0.6474554910757137 0.1 0  0.6564338522440513 0.1 0  0.6652629482939147 0.1 0  0.6739452579188948 0.1 0  0.6824832240165607 0.1 0  0.6908792415022103 0.1 0  0.6991356755989045 0.1 0  0.7072548438546967 0.1 0  0.7152390281534421 0.1 0  0.7230904746196039 0.1 0  0.7308113906759266 0.1 0  0.7384039435269326 0.1 0  0.7458702676581656 0.1 0  0.7532124631720397 0.1 0  0.7604325921167397 0.1 0  0.7675326856666862 0.1 0  0.7745147374421916 0.1 0  0.7813807123989068 0.1 0  0.7881325374362798 0.1 0  0.7947721131625659 0.1 0  0.8013013031866276 0.1 0  0.8077219449067021 0.1 0  0.8140358419942376 0.1 0  0.8202447685401882 0.1 0  0.8263504700910924 0.1 0  0.8323546643163114 0.1 0  0.8382590362474568 0.1 0  0.8440652473522128 0.1 0  0.8497749272799842 0.1 0  0.8553896837646281 0.1 0  0.8609110933285474 0.1 0  0.866340708855119 0.1 0  0.8716800550492284 0.1 0  0.8769306339052932 0.1 0  0.8820939206038667 0.1 0  0.8871713655604893 0.1 0  0.8921643975475726 0.1 0  0.8970744196575535 0.1 0  0.9019028106970642 0.1 0  0.9066509291259979 0.1 0  0.9113201098984042 0.1 0  0.9159116634553873 0.1 0  0.9204268818729691 0.1 0  0.9248670319440222 0.1 0  0.9292333656649013 0.1 0  0.9335271075812669 0.1 0  0.9377494640511216 0.1 0  0.941901623463222 0.1 0  0.9459847526686701 0.1 0  0.9538461538461205 0.1 0  0.9576923076922409 0.1 0  0.9615384615384381 0.1 0  0.9653846153846337 0.1 0  0.9692307692307542 0.1 0  0.9730769230768747 0.1 0  0.9769230769229952 0.1 0  0.9807692307691157 0.1 0  0.9846153846152361 0.1 0  0.9884615384614317 0.1 0  0.9923076923076356 0.1 0  0.9961538461538395 0.1 0  1 0.09591793123533533 0  1 0.09133596463859224 0  1 0.08619288104391448 0  1 0.08041996484521211 0  1 0.07394008421771697 0  1 0.06666666567302955 0  1 0.05850252932209174 0  1 0.04933859630113544 0  1 0.03905242821848202 0  1 0.02750659386753798 0  1 0.01454683679239736 0  1.015625 0 0  1.03125 0 0  1.046875 0 0  1.0625 0 0  1.078125 0 0  1.09375 0 0  1.109375 0 0  1.125 0 0  1.140625 0 0  1.15625 0 0  1.171875 0 0  1.1875 0 0  1.203125 0 0  1.21875 0 0  1.234375 0 0  1.25 0 0  1.265625 0 0  1.28125 0 0  1.296875 0 0  1.3125 0 0  1.328125 0 0  1.34375 0 0  1.359375 0 0  1.375 0 0  1.390625 0 0  1.40625 0 0  1.421875 0 0  1.4375 0 0  1.453125 0 0  1.46875 0 0  1.484375 0 0  1.515920751924515 0 0  1.531989369316721 0 0  1.54820720925872 0 0  1.564575665560501 0 0  1.581096138674279 0 0  1.597770029901263 0 0  1.614598783332311 0 0  1.631583831055205 0 0  1.64872661129721 0 0  1.666028606716533 0 0  1.683491276608443 0 0  1.701116134125304 0 0  1.718904673324128 0 0  1.736858414799339 0 0  1.754978895814663 0 0  1.773267661782904 0 0  1.791726281103402 0 0  1.810356325314689 0 0  1.8291593848892 0 0  1.848137076690385 0 0  1.867291007717254 0 0  1.886622833871288 0 0  1.90613418642363 0 0  1.925826753299799 0 0  1.945702199101513 0 0  1.96576223584749 0 0  1.986008569283268 0 0  2.006442931928877 0 0  2.02706707547783 0 0  2.047882750887917 0 0  2.06889175187935 0 0  2.090095860038271 0 0  2.111496891648636 0 0  2.133096679109554 0 0  2.154897066851056 0 0  2.176899916687499 0 0  2.199107102752146 0 0  2.22152053937028 0 0  2.244142122958061 0 0  2.266973806444078 0 0  2.290017523268154 0 0  2.313275249499252 0 0  2.336748971745516 0 0  2.360440702338606 0 0  2.384352453384031 0 0  2.408486280477412 0 0  2.432844240041185 0 0  2.457428414757088 0 0  2.482240901796653 0 0  2.507283830121838 0 0  2.532559332080812 0 0  2.558069568787417 0 0  2.583816724966441 0 0  2.60980299606584 0 0  2.636030600971886 0 0  2.662501790984011 0 0  2.689218818279327 0 0  2.716183964547616 0 0  2.743399548861297 0 0  2.77086788244719 0 0  2.798591312896326 0 0  2.826572223178268 0 0  2.854812990138617 0 0  2.883316031690714 0 0  2.912083780657189 0 0  2.941118704633482 0 0  2.970423276998917 0 0  3 0.02999999999994495 0  3 0.05999999999987042 0  3 0.089999999999783 0  3 0.119999999999701 0  3 0.149999999999619 0  3 0.179999999999692 0  3 0.2099999999997737 0  3 0.2399999999998511 0  3 0.2699999999999185 0  2.970138294777171 0.3 0  2.940375666438236 0.3 0  2.910711782853056 0.3 0  2.881146331305122 0.3 0  2.851678975030285 0.3 0  2.822309388626621 0.3 0  2.793037250095074 0.3 0  2.76386223529133 0.3 0  2.734784017903872 0.3 0  2.705802289276642 0.3 0  2.676916713794697 0.3 0  2.648126987654635 0.3 0  2.619432780406184 0.3 0  2.590833779385199 0.3 0  2.562329669847737 0.3 0  2.533920134950189 0.3 0  2.505604855727852 0.3 0  2.477383539822502 0.3 0  2.449255847639465 0.3 0  2.421221492569094 0.3 0  2.393280152486815 0.3 0  2.36543151914496 0.3 0  2.337675285481809 0.3 0  2.310011142385583 0.3 0  2.282438797441587 0.3 0  2.254957931061538 0.3 0  2.227568248063605 0.3 0  2.200269436651085 0.3 0  2.173061204949961 0.3 0  2.145943251515011 0.3 0  2.118915272469994 0.3 0  2.091976978084957 0.3 0  2.065128060700849 0.3 0  2.038368218849433 0.3 0  2.01169717777258 0.3 0  1.985114624111908 0.3 0  1.958620267850966 0.3 0  1.93221382054972 0.3 0  1.905894991850698 0.3 0  1.879663489459713 0.3 0  1.853519019126419 0.3 0  1.827461291053897 0.3 0  1.801490031354372 0.3 0  1.775604937580312 0.3 0  1.74980572560258 0.3 0  1.724092118631866 0.3 0  1.698463829173586 0.3 0  1.672920575782554 0.3 0  1.647462076974085 0.3 0  1.622088043536933 0.3 0  1.5967981978949 0.3 0  1.571592267767068 0.3 0  1.546469970305736 0.3 0  1.521431023814044 0.3 0  1.496475156230927 0.3 0  1.471602093687753 0.3 0  1.446811560490646 0.3 0  1.422103279101731 0.3 0  1.397476971708191 0.3 0  1.37293238939876 0.3 0  1.348469231419202 0.3 0  1.324087248732772 0.3 0  1.299786165921677 0.3 0  1.275565710847046 0.3 0  1.251425617644257 0.3 0  1.227365618676339 0.3 0  1.203385446174014 0.3 0  1.179484853067473 0.3 0  1.155663548773374 0.3 0  1.131921292279077 0.3 0  1.108257802159295 0.3 0  1.084672829009693 0.3 0  1.061166115303374 0.3 0  1.037737392995421 0.3 0  1.01438640299116 0.3 0  0.991112899770314 0.3 0  0.9679166155523955 0.3 0  0.944797284182564 0.3 0  0.921754678526042 0.3 0  0.8987885143602501 0.3 0  0.8758985548820624 0.3 0  0.8530845484099929 0.3 0  0.8303462351786988 0.3 0  0.8076833651172373 0.3 0  0.7850956864865304 0.3 0  0.7625829601354557 0.3 0  0.7401449314598274 0.3 0  0.717781337993959 0.3 0  0.6954919649675473 0.3 0  0.6732765357561226 0.3 0  0.6511348120768439 0.3 0  0.6290665642016573 0.3 0  0.6070715355430467 0.3 0  0.5851494825775325 0.3 0  0.5633001690203812 0.3 0  0.5415233562273221 0.3 0  0.5198187909431873 0.3 0  0.4981862401387795 0.3 0  0.4766254686134248 0.3 0  0.4551362360485234 0.3 0  0.4337182975262159 0.3 0  0.4123714223228037 0.3 0  0.3910953802377493 0.3 0  0.3698899313205595 0.3 0  0.3487548463710963 0.3 0  0.3276898864081783 0.3 0  0.3066948129116018 0.3 0  0.2857694003037476 0.3 0  0.2649134227095047 0.3 0  0.2441266417321288 0.3 0  0.2234088223399122 0.3 0  0.2027597568977288 0.3 0  0.1821792020676698 0.3 0  0.1616669305402443 0.3 0  0.1412227158799362 0.3 0  0.12084633013886 0.3 0  0.1005375673448281 0.3 0  0.08029618164595353 0.3 0  0.06012194778526769 0.3 0  0.04001466495039718 0.3 0  0.01997408913631205 0.3 0  0 0.2800000000000553 0  0 0.2600000000001105 0  0 0.2400000000001658 0  0 0.2200000000002211 0  0 0.2000000000002764 0  0 0.1800000000002244 0  0 0.1600000000001691 0  0 0.140000000000115 0  0 0.1200000000000564 0  1.133778471000506 0.01219539743990768 0  1.003741919047894 0.09354664821474232 0  0.9559421147150347 0.1035858189992458 0  0.9313792160389045 0.1037365237938103 0  0.9788461538460573 0.1033060829993555 0  0.9090102438250753 0.1037269304984056 0  0.8846304212778655 0.1043349840723655 0  0.8581503885465881 0.104741932962923 0  0.8286416220145676 0.1052762843984476 0  0.7982741772533339 0.1053575624517407 0  0.7708789559342691 0.1060290465840416 0  0.741870349714261 0.1078220590984258 0  0.7112469360040695 0.10685702926368 0  0.6783901541417233 0.1079959711853378 0  0.642884733623195 0.1075561996086514 0  0.6056235042367955 0.1085956039602543 0  0.5647007593786924 0.1083187281660325 0  1.1953125 0.01353164693413185 0  1.258148737344733 0.01268350115427042 0  1.320087046516829 0.01426312402966312 0  1.383495130751951 0.01432665475473204 0  1.4453125 0.01315663539200989 0  1.50886768312388 0.01395488397722681 0  0.9942307692307371 0.103330866937657 0  1.119309781943483 0.2802014914557878 0  1.572831235329714 0.01707210522554785 0  1.637611634353954 0.01209340368483431 0  1.709661292005932 0.0146870244871893 0  1.006561890631532 0.07068055446055937 0  1.784793444007901 0.01499371444634687 0  1.855459587353174 0.0
[...]
<PointData  Scalars="pressure"> 
<DataArray  type="Float64"  Name="pressure"  format="ascii">-5.1194072283340493e+00  -5.6989369586702923e+00  -5.5347690476726106e+00  -5.0795103718362400e+00  -3.7958113785905154e+00  0.0000000000000000e+00  0.0000000000000000e+00  -5.1193841455342932e+00  -5.1253299441265829e+00  -5.1311544450356328e+00  -5.1368824387916883e+00  -5.1425155710103949e+00  -5.1480555074465579e+00  -5.1535037978340563e+00  -5.1588620382228081e+00  -5.1641318294954841e+00  -5.1693146098452250e+00  -5.1744120433985490e+00  -5.1794256268242362e+00  -5.1843567655675837e+00  -5.1892070520551226e+00  -5.1939778987655334e+00  -5.1986708624443079e+00  -5.2032873403019018e+00  -5.2078289213000089e+00  -5.2122969361283706e+00  -5.2166929976170930e+00  -5.2210184223171199e+00  -5.2252749576736717e+00  -5.2294639784490711e+00  -5.2335864968673640e+00  -5.2376448148635211e+00  -5.2416400257714235e+00  -5.2455739305082894e+00  -5.2494479887188144e+00  -5.2532632923143590e+00  -5.2570227115528105e+00  -5.2607265036045332e+00  -5.2643779459444211e+00  -5.2679766474929872e+00  -5.2715264612896808e+00  -5.2750283031571454e+00  -5.2784846845261120e+00  -5.2818967939578627e+00  -5.2852672483814738e+00  -5.2885981243494369e+00  -5.2918910660773122e+00  -5.2951494418775598e+00  -5.2983752556288044e+00  -5.3015703492187090e+00  -5.3047395821048857e+00  -5.3078835309393444e+00  -5.3110049332740630e+00  -5.3141089922163154e+00  -5.3171977200258311e+00  -5.3202742422795977e+00  -5.3233449877390138e+00  -5.3264048402020769e+00  -5.3294789252582273e+00  -5.3325357825079021e+00  -5.3356217090418347e+00  -5.3387129213755200e+00  -5.3418240417253200e+00  -5.3449570510845632e+00  -5.3481223610318551e+00  -5.3513135687639233e+00  -5.3545837576216089e+00  -5.3578762062160843e+00  -5.3612063354453046e+00  -5.3646266257610780e+00  -5.3681159751748551e+00  -5.3717176781223355e+00  -5.3753621453369540e+00  -5.3791244146748101e+00  -5.3829997118575248e+00  -5.3870094560660231e+00  -5.3911619833479660e+00  -5.3954511304071406e+00  -5.3999036023857476e+00  -5.4045455648536427e+00  -5.4094181198421571e+00  -5.4144848065160147e+00  -5.4197734100937804e+00  -5.4253679468463689e+00  -5.4312178192472347e+00  -5.4373732009487181e+00  -5.4439566530686916e+00  -5.4509210277237292e+00  -5.4582475995082529e+00  -5.4660809819490357e+00  -5.4744814298611546e+00  -5.4834658408989156e+00  -5.4930953872048889e+00  -5.5035698109984788e+00  -5.5148734297732496e+00  -5.5271967654049936e+00  -5.5405456345882120e+00  -5.5554877892914059e+00  -5.5721451072228190e+00  -5.5907963598149477e+00  -5.6120565359124743e+00  -5.6366769470689686e+00  -5.6651862382329607e+00  -5.7637447052136181e+00  -5.8344988204665054e+00  -5.8940990669709299e+00  -5.9394656283499172e+00  -5.9671539942013414e+00  -5.9754541077172565e+00  -5.9640453135815559e+00  -5.9330764028980116e+00  -5.8825535407790621e+00  -5.8149068114846312e+00  -5.7349792745577757e+00  -5.6260184443608869e+00  -5.3959061448923018e+00  -5.3220015925254307e+00  -5.2738640330479818e+00  -5.2331442018655379e+00  -5.2003896964454892e+00  -5.1706769713257454e+00  -5.1453240487531353e+00  -5.1235821159071486e+00  -5.1050183164592173e+00  -5.0907818442981485e+00  -5.0820379286385693e+00  -5.0758776692072249e+00  -5.0642107215794478e+00  -5.0454571798044423e+00  -5.0209989425550310e+00  -4.9910755491172720e+00  -4.9588652929281540e+00  -4.9265597155436636e+00  -4.8922651880380092e+00  -4.8566249039607889e+00  -4.8209120128264464e+00  -4.7846668871076243e+00  -4.7476719026261565e+00  -4.7102587772173150e+00  -4.6715380072219146e+00  -4.6310705926210218e+00  -4.5886649017743002e+00  -4.5439699231336128e+00  -4.4960912652726819e+00  -4.4454816033873810e+00  -4.3947444139348422e+00  -4.3380730667921084e+00  -4.2843896645992068e+00  -4.2277170361300653e+00  -4.1720818018011139e+00  -4.1158842471404586e+00  -4.0666351852415863e+00  -4.0140558615280115e+00  -3.9661769771451549e+00  -3.9201373188016451e+00  -3.8766507873932583e+00  -3.8352443582024880e+00  -3.7574520386829842e+00  -3.7206475632992353e+00  -3.6849971466055105e+00  -3.6507355957326082e+00  -3.6145969680704031e+00  -3.5798846382296836e+00  -3.5432317483884685e+00  -3.5104308390051808e+00  -3.4731993323141395e+00  -3.4332737787235637e+00  -3.3911676278674117e+00  -3.3467239052737705e+00  -3.2990057448266725e+00  -3.2484897354703532e+00  -3.1949792795758425e+00  -3.1392811653322843e+00  -3.0817188212947189e+00  -3.0264244952985409e+00  -2.9658513754529134e+00  -2.9109258706204253e+00  -2.8542403116548587e+00  -2.7986927567329758e+00  -2.7457340714585716e+00  -2.6934270810241498e+00  -2.6437621364419703e+00  -2.5912687987815097e+00  -2.5433263330212621e+00  -2.4946445841126144e+00  -2.4459790353421638e+00  -2.3995632197126842e+00  -2.3498215381956427e+00  -2.2983221509808156e+00  -2.2458249707852089e+00  -2.1931747819833429e+00  -2.1384627439997597e+00  -2.0829582351699281e+00  -2.0259028413227012e+00  -1.9684603111911436e+00  -1.9101408254357799e+00  -1.8511565634223335e+00  -1.7916680473205586e+00  -1.7320453289502085e+00  -1.6719295047544045e+00  -1.6114239613276380e+00  -1.5500494245399026e+00  -1.4891002991290414e+00  -1.4277942916378030e+00  -1.3650547923962713e+00  -1.3016175664393221e+00  -1.2419009121298668e+00  -1.1742753938324686e+00  -1.1136049504068586e+00  -1.0456346289349314e+00  -9.7927571238787547e-01  -9.1726843274555458e-01  -8.4628690223012215e-01  -7.8250410785806135e-01  -7.1302372521333823e-01  -6.4362623428656185e-01  -5.7329337645237755e-01  -5.0863101471292416e-01  -4.3432802830056078e-01  -3.6479040386918787e-01  -2.9471873888701861e-01  -2.1715473249659442e-01  -1.5007150066404598e-01  -7.3143931948944446e-02  0.0000000000000000e+00  0.0000000000000000e+00  0.0000000000000000e+00  0.0000000000000000e+00  0.0000000000000000e+00  0.0000000000000000e+00  0.0000000000000000e+00  0.0000000000000000e+00  0.0000000000000000e+00  -7.2516592156451842e-02  -1.4670385316194123e-01  -2.2536170085549903e-01  -2.9844052815726974e-01  -3.7196765543637550e-01  -4.4525125991385278e-01  -5.1884079924744197e-01  -5.9218575380032779e-01  -6.6531063259921430e-01  -7.3820661508506213e-01  -8.1098117692956451e-01  -8.8347167152602135e-01  -9.5572619876924991e-01  -1.0278715895069417e+00  -1.0998652208082362e+00  -1.1718312801492632e+00  -1.2435575309286970e+00  -1.3149855035949678e+00  -1.3862921547197913e+00  -1.4574010680262224e+00  -1.5283655266722294e+00  -1.5989882442050385e+00  -1.6693044717439975e+00  -1.7391311583845046e+00  -1.8096694036043657e+00  -1.8788632880141229e+00  -1.9479506806500204e+00  -2.0172896552204955e+00  -2.0860552803727410e+00  -2.1560304521577813e+00  -2.2280252030770535e+00  -2.3019306810684292e+00  -2.3778229765348540e+00  -2.4522390417477173e+00  -2.5263932780137024e+00  -2.5981904383865779e+00  -2.6740784473722168e+00  -2.7429278203652188e+00  -2.8092396338537791e+00  -2.8756554569724209e+00  -2.9329127138604698e+00  -2.9939503861575449e+00  -3.0527244131127964e+00  -3.1112986693576081e+00  -3.1706890646437658e+00  -3.2314261863941431e+00  -3.2923267863791108e+00  -3.3558151743030851e+00  -3.4238495548082817e+00  -3.4931849827292947e+00  -3.5646750649376018e+00  -3.6378024730985494e+00  -3.7186848735645750e+00  -3.7955865405646594e+00  -3.8734064141050379e+00  -3.9505863377755857e+00  -4.0256837895520761e+00  -4.0971823461198591e+00  -4.1660414222100108e+00  -4.2327942526658031e+00  -4.2977875368936393e+00  -4.3611398664228345e+00  -4.4266693086052191e+00  -4.4916414078828506e+00  -4.5568373762140766e+00  -4.6211296284645771e+00  -4.6875048891496016e+00  -4.7529935985164329e+00  -4.8182466210822019e+00  -4.8828505513417593e+00  -4.9460263466105907e+00  -5.0093771630147241e+00  -5.0670598629386507e+00  -5.1208273139579630e+00  -5.1685043729982132e+00  -5.2126921485033915e+00  -5.2488472225816460e+00  -5.2782120970724922e+00  -5.3001903565124096e+00  -5.3160293996513932e+00  -5.3271077845940988e+00  -5.3337883142731961e+00  -5.3374221984776629e+00  -5.3382758004781135e+00  -5.3371637240436671e+00  -5.3346148024977618e+00  -5.3311391956736740e+00  -5.3268286743516313e+00  -5.3219302635350587e+00  -5.3166556441260573e+00  -5.3110539119657298e+00  -5.3052444426100847e+00  -5.2992672402291054e+00  -5.2931683809748806e+00  -5.2869829983735839e+00  -5.2807450105797678e+00  -5.2744589561452413e+00  -5.2681484580511384e+00  -5.2618202638404492e+00  -5.2554868641862038e+00  -5.2491519152022637e+00  -5.2428178285789100e+00  -5.2364919387807660e+00  -5.2301753638947730e+00  -5.2238715457093026e+00  -5.2175809113718854e+00  -5.2113053802248190e+00  -5.2050469987720600e+00  -5.1988047951610170e+00  -5.1925811803346145e+00  -5.1863754731436380e+00  -5.1801884422078919e+00  -5.1740206159862332e+00  -5.1678717490173511e+00  -5.1617423191926051e+00  -5.1556323498789194e+00  -5.1495419215768781e+00  -5.1434710874659677e+00  -5.1374198652823067e+00  -5.1313882825252408e+00  -5.1253763695671548e+00  -5.1193842110458636e+00  -5.1193851635522956e+00  -5.1193875340683466e+00  -5.1193912100625791e+00  -5.1193956816997579e+00  -5.1194001454748985e+00  -5.1194038351236939e+00  -5.1194061874796359e+00  -5.1194071445091307e+00  -4.8718042983159044e+00  -5.3466134841190911e+00  -5.7736421596606702e+00  -5.5811636185767055e+00  -5.8774232486255080e+00  -5.5092277810751815e+00  -5.4622000025453978e+00  -5.4283344175965240e+00  -5.4017478261198795e+00  -5.3812623187553923e+00  -5.3663514033766564e+00  -5.3528735195886297e+00  -5.3403016077253405e+00  -5.3280326405753549e+00  -5.3156726417896589e+00  -5.3033360426066922e+00  -5.2902485295019561e+00  -4.7282712561505305e+00  -4.5656307854490512e+00  -4.3685535778862921e+00  -4.1435963036228420e+00  -3.9436194650807108e+00  -3.7742721404241388e+00  -5.6542243554064520e+00  -4.9169275537068300e+00  -3.6315498764991792e+00  -3.4962135201757616e+00  -3.3241883392740141e+00  -5.1845008447689498e+00  -3.1049477183286522e+00  -2.8891680438732714e+00  -5.2768722814609594e+00  -2.6678710133588455e+00  -4.6540493901352411e+00  -4.3926262792309689e+00  -2.4627516515102883e+00  -4.1310037209373691e+00  -5.2623447194530559e+00  -3.7667536991211779e+00  -2.2751286931417498e+00  -5.2481800148695532e+00  -4.9747501180802880e+00  -2.0544201506950657e+00  -3.3881433731465318e+00  -5.0920878506173395e+00  -5.2319889366167445e+00  -1.8214510090323563e+00  -3.0225994265932883e+00  -5.2141995557432681e+00  -2.8459473254870846e+00  -1.5809068213060420e+00  -2.6325413295281814e+00  -5.2621961391148178e+00  -1.3268111605243591e+00  -5.1963251419386820e+00  -2.4123559617199377e+00  -5.3225701834052845e+00  -5.3382930262217769e+00  -2.1907688555567124e+00  -1.0807747913235635e+00  -5.1764215864887948e+00  -5.1616147791062073e+00  -3.1998308846190335e+00  -8.8206574662812298e-01  -6.7125236633301066e-01  -5.3292908027934782e+00  -1.9803034693551991e+00  -1.6996640471629898e+00  -5.3136691176660573e+00  -5.6501777569974685e+00  -5.8913356595389050e+00  -5.2963855174916565e+00  -1.4924034679902081e+00  -4.7414895820653552e-01  -5.2721619884871549e+00  -1.2076855621793268e+00  -5.2398281158438333e+00  -9.9215001575650996e-01  -5.2081752976306355e+00  -7.7525764963966870e-01  -5.1895795368491937e+00  -5.1527175887696846e+00  -5.1708007746426619e+00  -5.5576387548923512e-01  -5.1244397058029270e+00  -6.8853525106645233e-02  -5.1450959849501778e+00  -5.1107312917448064e+00  -3.4169450183214922e-01  -2.5090618381631552e-01  -5.2473327604059374e+00  -5.0363956323580101e+00  -5.1884134730712681e+00  -4.7872520439537567e+00  -5.3361863876258431e+00  -5.2838219768260322e+00  -5.2589567235794226e+00  -5.2262857908989693e+00  -3.6014281353452260e+00  -3.9869394785603745e+00  -4.2584544496209524e+00  -4.5229666293081552e+00  -5.1867824713625836e+00  -5.2054778370719159e+00  -1.8437212530721869e+00  -1.3509368721700745e+00  -5.2226826138504832e+00  -1.2113023564670178e+00  -5.1405420955091854e+00  -1.4552199090326647e+00  -1.7019415001559668e+00  -5.2399512207053665e+00  -1.9392400953424969e+00  -5.1244666803708148e+00  -2.1672676599989651e+00  -5.2550463040551527e+00  -2.3809004868342289e+00  -2.5621961905566182e+00  -3.7023465210695483e+00  -2.7774577871314063e+00  -5.2698936052244996e+00  -2.9970114052775565e+00  -3.2225977876240806e+00  -3.4143367119412504e+00  -5.2837054197092082e+00  -3.5600000138993440e+00  -5.8287311579212103e-02  -5.2967732677134727e+00  -5.3095026553816274e+00  -5.3220946499830601e+00  -5.3337551697623553e+00  -5.3467862993950188e+00  -5.3596103818920255e+00  -5.3739481534626679e+00  -5.3933507694122316e+00  -4.7999501145503958e+00  -5.4171752874502603e+00  -5.4475976937845809e+00  -5.4883161379980354e+00  -4.6509763002657136e+00  -5.5457288598788743e+00  -4.2589232185550916e+00  -4.4673261358951262e+00  -4.0481208965614695e+00  -3.8560179377824788e+00  -5.1240502529916165e+00  -5.7906190876192039e+00  -6.9433614033411722e-02  -5.1340571350685833e+00  -1.8581626070456100e-01  -5.0721433447662809e+00  -5.8429347630500457e-02  -5.1239077458924003e+00  -5.0573168624342690e+00  -5.0525836043149219e+00  -5.0316211475938832e+00  -5.0493253774991551e+00  -5.0275498433152164e+00  -5.0462901918560332e+00  -5.0217938793902652e+00  -5.0426057371372979e+00  -5.0157451597641405e+00  -5.0371348353133856e+00  -5.0078216994307496e+00  -5.0298407507727543e+00  -4.9976067893498888e+00  -5.0198093085518209e+00  -4.9857394276411675e+00  -5.0076985511183505e+00  -4.9723761281200316e+00  -4.9952280218918403e+00  -4.9595016966239740e+00  -4.9828832364551117e+00  -4.9455797555490202e+00  -5.0260509748130175e+00  -4.9204026633477671e+00  -4.9069660619481743e+00  -5.0115089263865169e+00  -5.0607818662298572e+00  -4.8806286605926292e+00  -4.8656409584972939e+00  -4.8417861565409783e+00  -4.8239719744351612e+00  -4.7994271909214570e+00  -4.7819500193348867e+00  -4.7581024015491336e+00  -4.7414306772729340e+00  -4.7175304782680447e+00  -4.6998977022987534e+00  -4.6765347402340982e+00  -4.6534328860235714e+00  -4.6336528969165300e+00  -4.6087315203269581e+00  -4.5880660644173936e+00  -4.5557831120494336e+00  -4.5366378952468338e+00  -4.5047284994563253e+00  -4.4803226759297061e+00  -4.4467327025824170e+00  -4.4176953509159977e+00  -4.3856012080023454e+00  -4.3505873849150376e+00  -4.3200737432865957e+00  -4.2810248361371972e+00  -5.0417121536142577e+00  -5.0914964316180766e+00  -4.2522376325302220e+00  -4.2055988239886375e+00  -4.1849131831156026e+00  -4.1367996118255048e+00  -4.1207464983966720e+00  -4.0729061569991147e+00  -4.0579674782162485e+00  -4.0098511148279998e+00  -3.9976513007423398e+00  -3.9497895954238160e+00  -4.8913581423689294e+00  -3.9395453544320134e+00  -3.8928126433168559e+00  -3.8835238128816627e+00  -3.8389103326836858e+00  -3.8295201030013661e+00  -3.7877771835854999e+00  -5.0708283387044686e+00  -5.1205388129701142e+00  -5.0562301185887684e+00  -3.7765959000243692e+00  -3.7384132122261584e+00  -5.1180533773684411e+00  -3.7243051512163006e+00  -3.6906035990821726e+00  -3.6733683547990594e+00  -3.6439213896355058e+00  -3.6227470718045502e+00  -3.5972261672252661e+00  -4.7684073616150036e+00  -3.5721962211581366e+00  -3.5501166966142303e+00  -3.5209063734707953e+00  -3.5016018166060596e+00  -3.4688899044148562e+00  -3.4512522710973683e+00  -4.9639089482856491e+00  -4.6289711153909616e+00  -3.4154217282585044e+00  -3.3984268526837562e+00  -5.0972535597717394e+00  -5.1526303900622077e+00  -5.0487787930477985e+00  -4.4714867986875673e+00  -3.3596711298510074e+00  -3.3421288085745200e+00  -3.3030092636317332e+00  -3.2834847026940430e+00  -3.2455218519876623e+00  -3.2244805803036973e+00  -3.7507750401831030e+00  -3.3778758745137285e+00  -3.6176010297185957e+00  -3.9058731397608506e+00  -3.1881549630534680e+00  -3.1646427926647793e+00  -3.1999321059932533e+00  -3.1376970474998251e+00  -3.1048828903163601e+00  -3.0755238609928663e+00  -3.0457721649516167e+00  -3.0124369168000005e+00  -2.9872718752277274e+00  -2.9496833549357819e+00  -2.9296619485535005e+00  -2.8890363399847092e+00  -2.8724710568089131e+00  -2.8295990760588330e+00  -2.8157464916406494e+00  -2.7709693750036819e+00  -2.7576304050279239e+00  -2.7117480163384822e+00  -2.6985161504308395e+00  -2.6526550398514046e+00  -2.6378572648961294e+00  -2.5931776513590532e+00  -2.5763901320113871e+00  -2.5328929764019077e+00  -4.0918534717272648e+00  -4.2902412527046154e+00  -2.5132012509695607e+00  -2.4721967314038529e+00  -2.4490903387093477e+00  -2.4103469199241490e+00  -4.7753762403159321e+00  -2.3840835855196154e+00  -2.3482175400868424e+00  -4.4516807975694874e+00  -4.6138839082976864e+00  -5.1199914980032517e+00  -5.1654996007072338e+00  -5.2069124421681083e+00  -5.2201334472976919e+00  -5.2601863938010078e+00  -5.2686140546092410e+00  -5.3093500695875342e+00  -5.3107576705108324e+00  -5.3538908681102289e+00  -5.3461719751467056e+00  -5.3901493774763782e+00  -5.3733820367157090e+00  -5.4175889060719413e+00  -5.3958298379428404e+00  -5.4414977258763093e+00  -5.4143716588297526e+00  -5.4463962810425262e+00  -5.4190243278735597e+00  -5.4491070346333652e+00  -5.4272229806967749e+00  -5.4485169890615834e+00  -5.4277130607880535e+00  -5.4446295855117208e+00  -5.4255810877310946e+00  -5.4388387890655787e+00  -5.4218598240451907e+00  -5.4322800665882482e+00  -5.4171946268802973e+00  -5.4079346018474306e+00  -5.4064120479786917e+00  -5.4033137696678093e+00  -5.4119579451345299e+00  -5.3996636808708098e+00  -5.4064071169448917e+00  -5.3955465499099873e+00  -5.4009041236733877e+00  -5.3912000596619301e+00  -5.3888185401710302e+00  -5.3967770702746929e+00  -5.3867879674225554e+00  -5.3899059216501364e+00  -5.3819434850270254e+00  -5.3783124109015477e+00  -5.3743874492798556e+00  -5.3771758033066357e+00  -5.3703836862470382e+00  -5.3722239679491715e+00  -5.3662201876093469e+00  -5.3004339044802240e+00  -5.3673823257259103e+00  -5.3619994701228935e+00  -5.3602046683617077e+00  -5.3564917969384993e+00  -5.3578489472095123e+00  -5.3526955739086821e+00  -5.3536791798313947e+00  -5.3488311973353735e+00  -5.4630128684717016e+00  -5.3831970265364832e+00  -5.4030297406529293e+00  -5.4747423167396860e+00  -5.3495909737371496e+00  -5.3449080109964813e+00  -5.3441065333411686e+00  -5.3403666950085036e+00  -5.3409114294878606e+00  -5.3365738318163736e+00  -5.3368476576788018e+00  -5.3326902912069132e+00  -5.3323537688908642e+00  -5.3286428872030784e+00  -5.3287028691678646e+00  -5.3248122342666866e+00  -5.3706352621132956e+00  -5.3246643553495741e+00  -5.3209502655740799e+00  -5.4667271220535234e+00  -5.3035493418151676e+00  -5.3545915130581969e+00  -5.4487244994517248e+00  -5.3206688814532166e+00  -5.3169452584767427e+00  -5.3174606922344614e+00  -5.3132760584611383e+00  -5.3129992108380781e+00  -5.3092321090641805e+00  -5.3095106479000584e+00  -5.3055152841124604e+00  -5.3051632637946726e+00  -5.3014961381271402e+00  -5.4113159792281129e+00  -5.3010856861610103e+00  -5.2973866077862830e+00  -5.3281176642753696e+00  -5.3774308890449403e+00  -4.1066163989537952e+00  -5.3977685278697756e+00  -5.2978179216555565e+00  -5.2937174197587815e+00  -5.2932484039867553e+00  -5.2896021948674887e+00  -2.3198278082040749e+00  -2.2860592688286849e+00  -2.2564675287161400e+00  -2.2232122183061769e+00  -2.1928482386221075e+00  -2.1600481802921054e+00  -5.2889351909720679e+00  -5.2853569124297612e+00  -3.8181031468049778e+00  -5.2859151665959114e+00  -5.2817120642413427e+00  -5.2812541656820766e+00  -5.2775235695867471e+00  -5.0673768527482217e+00  -5.1957563116097747e+00  -5.3586931087335410e+00  -2.8454517659266250e+00  -2.1294211222824737e+00  -2.0972536435932829e+00  -3.1716477676618169e+00  -2.5522234694777612e+00  -2.1279058396441841e+00  -2.0653861210186415e+00  -2.0344500990535939e+00  -2.0022461553259232e+00  -1.9715396970792554e+00  -1.9386124406859808e+00  -1.9083722424688432e+00  -1.8756581024525030e+00  -1.8450199118567951e+00  -1.8117698748110898e+00  -1.7812156915243813e+00  -1.7467227135278711e+00  -1.7169198090840778e+00  -1.6819754747401183e+00  -1.6521678795263093e+00  -1.6169960809260226e+00  -1.587801606115906