<?xml version="1.0"?>
<VTKFile type="UnstructuredGrid"  version="0.1"  >
<UnstructuredGrid>
<Piece  NumberOfPoints="2886" NumberOfCells="5412">
<Points>
<DataArray  type="Float64"  NumberOfComponents="3"  format="ascii">0 0.1 0  0.98 0.1 0  1 0.1 0  1 0 0  1.5 0 0  3 0 0  3 0.3 0  0 0.3 0  0.01975375321854102 0.1 0  0.03918897458218897 0.1 0  0.05831079002627837 0.1 0  0.07712425666319796 0.1 0  0.0956343475259058 0.1 0  0.1138459546796227 0.1 0  0.1317638870668193 0.1 0  0.1493928840275937 0.1 0  0.1667376092280033 0.1 0  0.1838026357802664 0.1 0  0.2005924801287244 0.1 0  0.2171115811543574 0.1 0  0.2333643037107681 0.1 0  0.2493549444060462 0.1 0  0.2650877293306821 0.1 0  0.2805668058011438 0.1 0  0.2957962848620976 0.1 0  0.3107801766802674 0.1 0  0.3255224447361181 0.1 0  0.3400269848175519 0.1 0  0.3542976327080778 0.1 0  0.3683381609158136 0.1 0  0.3821522744564845 0.1 0  0.3957436316838916 0.1 0  0.4091158196437086 0.1 0  0.4222723742184605 0.1 0  0.4352167733293057 0.1 0  0.4479524348643424 0.1 0  0.4604827295467524 0.1 0  0.4728109659990664 0.1 0  0.4849404035409129 0.1 0  0.4968742471455402 0.1 0  0.508615651843175 0.1 0  0.520167721130924 0.1 0  0.5315335063628542 0.1 0  0.5427160117228604 0.1 0  0.5537181940261912 0.1 0  0.564542961924507 0.1 0  0.575193173270606 0.1 0  0.5856716438765114 0.1 0  0.5959811458006617 0.1 0  0.6061243988680743 0.1 0  0.6161040893285659 0.1 0  0.6259228503970299 0.1 0  0.6355832809287655 0.1 0  0.6450879281079505 0.1 0  0.6544393102991295 0.1 0  0.663639896558931 0.1 0  0.6726921201956305 0.1 0  0.6815983691630338 0.1 0  0.6903610031396646 0.1 0  0.6989823343332418 0.1 0  0.7074646404270378 0.1 0  0.7158101645005117 0.1 0  0.7240211149852543 0.1 0  0.7320996585612525 0.1 0  0.7400479319727645 0.1 0  0.7478680336617921 0.1 0  0.755562036504958 0.1 0  0.7631319665092091 0.1 0  0.7705798279317605 0.1 0  0.777907588066146 0.1 0  0.7851171851013118 0.1 0  0.7922105226004981 0.1 0  0.7991894774550319 0.1 0  0.8060558928136696 0.1 0  0.812811583201334 0.1 0  0.8194583352091183 0.1 0  0.8259979035038147 0.1 0  0.8324320194413813 0.1 0  0.8387623808293405 0.1 0  0.8449906627004957 0.1 0  0.8511185094880469 0.1 0  0.8571475426008311 0.1 0  0.8630793533568246 0.1 0  0.8689155114558531 0.1 0  0.8746575581239063 0.1 0  0.8803070109173519 0.1 0  0.885865363938836 0.1 0  0.8913340851680313 0.1 0  0.8967146206523592 0.1 0  0.9020083930695622 0.1 0  0.9072167995950768 0.1 0  0.9123412183131177 0.1 0  0.9173830029719022 0.1 0  0.9223434865647732 0.1 0  0.9272239785872722 0.1 0  0.9320257720706087 0.1 0  0.9367501330378739 0.1 0  0.9413983102716995 0.1 0  0.9459715351562933 0.1 0  0.9504710127113115 0.1 0  0.9548979346500661 0.1 0  0.9592534708344373 0.1 0  0.9635387708980176 0.1 0  0.9677549682252325 0.1 0  0.971903177251235 0.1 0  0.9759844952956497 0.1 0  0.9840000000000086 0.1 0  0.987999999999974 0.1 0  0.9919999999999393 0.1 0  0.9959999999999913 0.1 0  1 0.09591793123533533 0  1 0.09133596463859224 0  1 0.08619288104391448 0  1 0.08041996484521211 0  1 0.07394008421771697 0  1 0.06666666567302955 0  1 0.05850252932209174 0  1 0.04933859630113544 0  1 0.03905242821848202 0  1 0.02750659386753798 0  1 0.01454683679239736 0  1.015625 0 0  1.03125 0 0  1.046875 0 0  1.0625 0 0  1.078125 0 0  1.09375 0 0  1.109375 0 0  1.125 0 0  1.140625 0 0  1.15625 0 0  1.171875 0 0  1.1875 0 0  1.203125 0 0  1.21875 0 0  1.234375 0 0  1.25 0 0  1.265625 0 0  1.28125 0 0  1.296875 0 0  1.3125 0 0  1.328125 0 0  1.34375 0 0  1.359375 0 0  1.375 0 0  1.390625 0 0  1.40625 0 0  1.421875 0 0  1.4375 0 0  1.453125 0 0  1.46875 0 0  1.484375 0 0  1.515920751924515 0 0  1.531989369316721 0 0  1.54820720925872 0 0  1.564575665560501 0 0  1.581096138674279 0 0  1.597770029901263 0 0  1.614598783332311 0 0  1.631583831055205 0 0  1.64872661129721 0 0  1.666028606716533 0 0  1.683491276608443 0 0  1.701116134125304 0 0  1.718904673324128 0 0  1.736858414799339 0 0  1.754978895814663 0 0  1.773267661782904 0 0  1.791726281103402 0 0  1.810356325314689 0 0  1.8291593848892 0 0  1.848137076690385 0 0  1.867291007717254 0 0  1.886622833871288 0 0  1.90613418642363 0 0  1.925826753299799 0 0  1.945702199101513 0 0  1.96576223584749 0 0  1.986008569283268 0 0  2.006442931928877 0 0  2.02706707547783 0 0  2.047882750887917 0 0  2.06889175187935 0 0  2.090095860038271 0 0  2.111496891648636 0 0  2.133096679109554 0 0  2.154897066851056 0 0  2.176899916687499 0 0  2.199107102752146 0 0  2.22152053937028 0 0  2.244142122958061 0 0  2.266973806444078 0 0  2.290017523268154 0 0  2.313275249499252 0 0  2.336748971745516 0 0  2.360440702338606 0 0  2.384352453384031 0 0  2.408486280477412 0 0  2.432844240041185 0 0  2.457428414757088 0 0  2.482240901796653 0 0  2.507283830121838 0 0  2.532559332080812 0 0  2.558069568787417 0 0  2.583816724966441 0 0  2.60980299606584 0 0  2.636030600971886 0 0  2.662501790984011 0 0  2.689218818279327 0 0  2.716183964547616 0 0  2.743399548861297 0 0  2.77086788244719 0 0  2.798591312896326 0 0  2.826572223178268 0 0  2.854812990138617 0 0  2.883316031690714 0 0  2.912083780657189 0 0  2.941118704633482 0 0  2.970423276998917 0 0  3 0.02999999999994495 0  3 0.05999999999987042 0  3 0.089999999999783 0  3 0.119999999999701 0  3 0.149999999999619 0  3 0.179999999999692 0  3 0.2099999999997737 0  3 0.2399999999998511 0  3 0.2699999999999185 0  2.970138294777171 0.3 0  2.940375666438236 0.3 0  2.910711782853056 0.3 0  2.881146331305122 0.3 0  2.851678975030285 0.3 0  2.822309388626621 0.3 0  2.793037250095074 0.3 0  2.76386223529133 0.3 0  2.734784017903872 0.3 0  2.705802289276642 0.3 0  2.676916713794697 0.3 0  2.648126987654635 0.3 0  2.619432780406184 0.3 0  2.590833779385199 0.3 0  2.562329669847737 0.3 0  2.533920134950189 0.3 0  2.505604855727852 0.3 0  2.477383539822502 0.3 0  2.449255847639465 0.3 0  2.421221492569094 0.3 0  2.393280152486815 0.3 0  2.36543151914496 0.3 0  2.337675285481809 0.3 0  2.310011142385583 0.3 0  2.282438797441587 0.3 0  2.254957931061538 0.3 0  2.227568248063605 0.3 0  2.200269436651085 0.3 0  2.173061204949961 0.3 0  2.145943251515011 0.3 0  2.118915272469994 0.3 0  2.091976978084957 0.3 0  2.065128060700849 0.3 0  2.038368218849433 0.3 0  2.01169717777258 0.3 0  1.985114624111908 0.3 0  1.958620267850966 0.3 0  1.93221382054972 0.3 0  1.905894991850698 0.3 0  1.879663489459713 0.3 0  1.853519019126419 0.3 0  1.827461291053897 0.3 0  1.801490031354372 0.3 0  1.775604937580312 0.3 0  1.74980572560258 0.3 0  1.724092118631866 0.3 0  1.698463829173586 0.3 0  1.672920575782554 0.3 0  1.647462076974085 0.3 0  1.622088043536933 0.3 0  1.5967981978949 0.3 0  1.571592267767068 0.3 0  1.546469970305736 0.3 0  1.521431023814044 0.3 0  1.496475156230927 0.3 0  1.471602093687753 0.3 0  1.446811560490646 0.3 0  1.422103279101731 0.3 0  1.397476971708191 0.3 0  1.37293238939876 0.3 0  1.348469231419202 0.3 0  1.324087248732772 0.3 0  1.299786165921677 0.3 0  1.275565710847046 0.3 0  1.251425617644257 0.3 0  1.227365618676339 0.3 0  1.203385446174014 0.3 0  1.179484853067473 0.3 0  1.155663548773374 0.3 0  1.131921292279077 0.3 0  1.108257802159295 0.3 0  1.084672829009693 0.3 0  1.061166115303374 0.3 0  1.037737392995421 0.3 0  1.01438640299116 0.3 0  0.991112899770314 0.3 0  0.9679166155523955 0.3 0  0.944797284182564 0.3 0  0.921754678526042 0.3 0  0.8987885143602501 0.3 0  0.8758985548820624 0.3 0  0.8530845484099929 0.3 0  0.8303462351786988 0.3 0  0.8076833651172373 0.3 0  0.7850956864865304 0.3 0  0.7625829601354557 0.3 0  0.7401449314598274 0.3 0  0.717781337993959 0.3 0  0.6954919649675473 0.3 0  0.6732765357561226 0.3 0  0.6511348120768439 0.3 0  0.6290665642016573 0.3 0  0.6070715355430467 0.3 0  0.5851494825775325 0.3 0  0.5633001690203812 0.3 0  0.5415233562273221 0.3 0  0.5198187909431873 0.3 0  0.4981862401387795 0.3 0  0.4766254686134248 0.3 0  0.4551362360485234 0.3 0  0.4337182975262159 0.3 0  0.4123714223228037 0.3 0  0.3910953802377493 0.3 0  0.3698899313205595 0.3 0  0.3487548463710963 0.3 0  0.3276898864081783 0.3 0  0.3066948129116018 0.3 0  0.2857694003037476 0.3 0  0.2649134227095047 0.3 0  0.2441266417321288 0.3 0  0.2234088223399122 0.3 0  0.2027597568977288 0.3 0  0.1821792020676698 0.3 0  0.1616669305402443 0.3 0  0.1412227158799362 0.3 0  0.12084633013886 0.3 0  0.1005375673448281 0.3 0  0.08029618164595353 0.3 0  0.06012194778526769 0.3 0  0.04001466495039718 0.3 0  0.01997408913631205 0.3 0  0 0.2800000000000553 0  0 0.2600000000001105 0  0 0.2400000000001658 0  0 0.2200000000002211 0  0 0.2000000000002764 0  0 0.1800000000002244 0  0 0.1600000000001691 0  0 0.140000000000115 0  0 0.1200000000000564 0  1.13346801534201 0.01255848438672509 0  1.003577645172735 0.09351054173913405 0  0.9777559943702486 0.1034978156913738 0  0.9524533750752109 0.1040889939962738 0  0.9296242411226409 0.1041520033606139 0  0.9046110503652111 0.104409422380137 0  0.8777709649694228 0.1053360318797398 0  0.8483859145648608 0.1061007868330701 0  0.8162363822948977 0.1052777104363292 0  0.7893110024210437 0.1060761643971561 0  0.7587949382612539 0.1067265405088633 0  0.7280603867732535 0.1069398153264939 0  0.6947001989413015 0.1075609887579097 0  0.6590363283767549 0.1076715322596598 0  0.6210028614493155 0.1072970410408442 0  1.1953125 0.01353164693413185 0  1.258193991486058 0.01269648635163345 0  1.3201967268638 0.01407907077719561 0  1.383538555392096 0.01434101079053473 0  1.445312500000001 0.01303671693628424 0  1.508925448095738 0.01398525724792267 0  0.9939176689634008 0.1034638089837981 0  1.120967497222226 0.2796788492172345 0  1.572835902117391 0.01424132418857359 0  1.637573277451887 0.01212536916586023 0  1.709730776795181 0.01466855431023635 0  1.005631976950563 0.07074019818158772 0  1.784944696816299 0.01454708406461822 0  0.5805605730631225 0.1101465090472147 0  1.855621181165637 0.01550931272897607 0  0.5366111276616774 0.1096761308243709 0  1.935200147913231 0.01760344159641829 0  1.214922267975168 0.2799787705802257 0  1.31178773425331 0.2792
[...]
<PointData  Scalars="pressure"> 
<DataArray  type="Float64"  Name="pressure"  format="ascii">-1.1656184597817464e-02  -8.2440559292715954e-01  -4.6320301655456649e-02  -3.3046600894301413e-02  3.1254709170691307e-02  0.0000000000000000e+00  0.0000000000000000e+00  -1.1591790298194050e-02  -1.7582278137306916e-02  -2.3413447327643378e-02  -2.9151491957540996e-02  -3.4798001679896086e-02  -4.0354662117632008e-02  -4.5823052632674922e-02  -5.1204541037224861e-02  -5.6500995616468860e-02  -6.1713785370757973e-02  -6.6844430683677236e-02  -7.1894758119734878e-02  -7.6866256512796022e-02  -8.1760283150111621e-02  -8.6578810162115771e-02  -9.1323390079439140e-02  -9.5994983621255248e-02  -1.0059633182633736e-01  -1.0512854471185230e-01  -1.0959330414503764e-01  -1.1399299354316028e-01  -1.1832891204784024e-01  -1.2260213462310192e-01  -1.2681602352154955e-01  -1.3097150438633309e-01  -1.3507162542421239e-01  -1.3911786306181650e-01  -1.4311118833626341e-01  -1.4705499580714282e-01  -1.5095186362643664e-01  -1.5480332714570127e-01  -1.5861182651764250e-01  -1.6238052325940816e-01  -1.6611088031219609e-01  -1.6980669148412425e-01  -1.7346992800329139e-01  -1.7710422637667844e-01  -1.8071239791053573e-01  -1.8429333744765145e-01  -1.8785740962480896e-01  -1.9140356782434353e-01  -1.9493508100400767e-01  -1.9845795973427124e-01  -2.0197520999457388e-01  -2.0548406122712989e-01  -2.0899867402787589e-01  -2.1251717911686335e-01  -2.1604437818608319e-01  -2.1958537178618262e-01  -2.2314420206518709e-01  -2.2672546196826268e-01  -2.3033530549660353e-01  -2.3397788652481336e-01  -2.3765757549236413e-01  -2.4137894317119987e-01  -2.4515346565893900e-01  -2.4898029236232797e-01  -2.5286839602219247e-01  -2.5682004407433512e-01  -2.6085261117599468e-01  -2.6496856638642274e-01  -2.6916517746095270e-01  -2.7345894658471154e-01  -2.7786512084322551e-01  -2.8237754320534625e-01  -2.8701812248076014e-01  -2.9179488419018118e-01  -2.9670830229807515e-01  -3.0177807968348097e-01  -3.0701564817806221e-01  -3.1243326632844376e-01  -3.1805684756667441e-01  -3.2389045555331997e-01  -3.2994404619884476e-01  -3.3622783944492513e-01  -3.4280584336872527e-01  -3.4966989636832119e-01  -3.5684098644020718e-01  -3.6436310174539288e-01  -3.7225803035446137e-01  -3.8056489694338813e-01  -3.8932302650600537e-01  -3.9860716670302443e-01  -4.0845933866764084e-01  -4.1892880121689025e-01  -4.3013132232656454e-01  -4.4216183969492689e-01  -4.5514094385815140e-01  -4.6923120571723637e-01  -4.8462988939905588e-01  -5.0159578141341055e-01  -5.2048361640032137e-01  -5.4178333061925277e-01  -5.6618775564560875e-01  -5.9464322624830357e-01  -6.2904909602531978e-01  -6.7215468788658628e-01  -7.2692130153031587e-01  -8.3117998549413730e-01  -1.7027625174864849e+00  -1.5719823451287371e+00  -1.1291246669671744e+00  -7.2914222839077525e-01  -1.4280855792784533e-01  -8.2743159023388566e-02  -6.9380014926983397e-02  -5.7074332304586299e-02  -4.9214252553034146e-02  -4.3633526871066690e-02  -3.9526372085208900e-02  -3.6272213456148415e-02  -3.3847386553842236e-02  -3.2448120091075505e-02  -3.2449335711401794e-02  -3.3781159451110057e-02  -3.3672370980038197e-02  -3.2138176909193517e-02  -2.9349552905961439e-02  -2.5419724874705833e-02  -2.0506999369244563e-02  -1.4752534144946431e-02  -8.3399452310357596e-03  -1.5947069085041580e-03  5.1985240398912261e-03  1.1797520861687704e-02  1.7977364304781248e-02  2.3577791477762677e-02  2.8477856047619994e-02  3.2606022307368879e-02  3.5941972711344389e-02  3.8500522818850663e-02  4.0323887153044496e-02  4.1497330050355899e-02  4.2077222509879435e-02  4.2137354861287286e-02  4.1837346594114089e-02  4.1169757195439458e-02  4.0284155544786766e-02  3.9225522733537271e-02  3.8088630755676596e-02  3.6858600871248010e-02  3.5639630542689205e-02  3.4443904875331895e-02  3.3302122398129547e-02  3.2235021632729267e-02  3.0355063097971081e-02  2.9562242140666047e-02  2.8865480231207868e-02  2.8271707530722157e-02  2.7790604236970960e-02  2.7393012872110826e-02  2.7097630393210184e-02  2.6892467460413207e-02  2.6768101083989398e-02  2.6707867508827549e-02  2.6718403807060247e-02  2.6785649248034806e-02  2.6901466031919393e-02  2.7060155393315615e-02  2.7255302954565758e-02  2.7479263497595417e-02  2.7727720171750774e-02  2.7996974419300151e-02  2.8276135676848665e-02  2.8569800496855043e-02  2.8867480584126342e-02  2.9167174187429951e-02  2.9467054223754723e-02  2.9762349721464985e-02  3.0051570386268441e-02  3.0325710653383464e-02  3.0592568517663093e-02  3.0839558346651003e-02  3.1065905565871198e-02  3.1268940623098936e-02  3.1446019909377093e-02  3.1593964258193122e-02  3.1711982951638983e-02  3.1798145542056226e-02  3.1849568668994431e-02  3.1866573176929022e-02  3.1847004317130806e-02  3.1790445513082265e-02  3.1694996830365044e-02  3.1558937581401297e-02  3.1379861479681845e-02  3.1154323224167977e-02  3.0878074318385157e-02  3.0546458590139793e-02  3.0153390221306680e-02  2.9693450499530812e-02  2.9161576278150848e-02  2.8547316728743402e-02  2.7855045141363579e-02  2.7072650469396858e-02  2.6206590308097556e-02  2.5249611604533578e-02  2.4210096737254092e-02  2.3088316620120401e-02  2.1888035058924105e-02  2.0616018955227296e-02  1.9277253402613000e-02  1.7874920120785023e-02  1.6412907178020821e-02  1.4892119079303058e-02  1.3308342130248172e-02  1.1660867697446913e-02  9.9409565727405294e-03  8.1466762116377441e-03  6.2565427429987271e-03  4.2851992351813067e-03  2.1989602856297566e-03  0.0000000000000000e+00  0.0000000000000000e+00  0.0000000000000000e+00  0.0000000000000000e+00  0.0000000000000000e+00  0.0000000000000000e+00  0.0000000000000000e+00  0.0000000000000000e+00  0.0000000000000000e+00  1.3491246446389472e-03  2.6851266702224569e-03  4.0776545124932102e-03  5.5013089187154335e-03  6.9505026809931654e-03  8.4105826372877519e-03  9.8716086842923993e-03  1.1325002448746093e-02  1.2763625680861403e-02  1.4185427056099618e-02  1.5589967976845765e-02  1.6981104513297134e-02  1.8363117995963494e-02  1.9742868002918260e-02  2.1126463764503486e-02  2.2518909019996796e-02  2.3927928001179363e-02  2.5352444690074399e-02  2.6794311990664729e-02  2.8252883918772408e-02  2.9726558225152667e-02  3.1210235505683522e-02  3.2705106170645405e-02  3.4199028343516388e-02  3.5699246838922838e-02  3.7189050360808266e-02  3.8668408896200428e-02  4.0128998376266760e-02  4.1562671445178258e-02  4.2958734538422354e-02  4.4301211715249429e-02  4.5565033138543681e-02  4.6744342821504095e-02  4.7798689597601043e-02  4.8684351845709906e-02  4.9365032592261868e-02  4.9810512543016390e-02  4.9958437253831020e-02  4.9755545161840491e-02  4.9174237867684122e-02  4.8144219590085552e-02  4.6637500932350973e-02  4.4628141380228914e-02  4.2085127421634831e-02  3.8996327186546560e-02  3.5379747633522377e-02  3.1236682040286894e-02  2.6600502036467286e-02  2.1508787521383559e-02  1.6033628011480890e-02  1.0216782025089233e-02  4.1204846610284973e-03  -2.1908222920713431e-03  -8.6680854013257373e-03  -1.5254380270324589e-02  -2.1900608417517963e-02  -2.8579378690577990e-02  -3.5280765396123084e-02  -4.1948308043991425e-02  -4.8600665909177207e-02  -5.5247874150512299e-02  -6.1887546095596255e-02  -6.8549862917466453e-02  -7.5259519532381941e-02  -8.2054750463468787e-02  -8.8981828207121055e-02  -9.6092136833694913e-02  -1.0345109440378503e-01  -1.1111286616833288e-01  -1.1914803286213167e-01  -1.2763978143267182e-01  -1.3662036163145216e-01  -1.4608856202599521e-01  -1.5604178896573909e-01  -1.6623730533784431e-01  -1.7645965377763853e-01  -1.8631623145259585e-01  -1.9539683456151755e-01  -2.0337979534795492e-01  -2.1010308679710926e-01  -2.1506484533423348e-01  -2.1847597251107759e-01  -2.2028148977197051e-01  -2.2091898130262472e-01  -2.2029519665100378e-01  -2.1852778678699347e-01  -2.1595293561920773e-01  -2.1265363665651843e-01  -2.0869295610540248e-01  -2.0425765379219279e-01  -1.9938384850786761e-01  -1.9422902047438892e-01  -1.8881620948315395e-01  -1.8316688781293775e-01  -1.7738451944931163e-01  -1.7148023633720513e-01  -1.6546527027459124e-01  -1.5937186861709510e-01  -1.5322925402730103e-01  -1.4704839660967306e-01  -1.4083479859871437e-01  -1.3460312527486501e-01  -1.2835577837086201e-01  -1.2210814269393079e-01  -1.1585759468059227e-01  -1.0961136920232105e-01  -1.0337262715930101e-01  -9.7142776258089397e-02  -9.0925250032239821e-02  -8.4721074038297761e-02  -7.8531167921346734e-02  -7.2356930548107851e-02  -6.6199198524120373e-02  -6.0058533261233227e-02  -5.3935384570931506e-02  -4.7830505648850614e-02  -4.1743752041662516e-02  -3.5675539590538180e-02  -2.9626150329816268e-02  -2.3595580736068267e-02  -1.7584104219360946e-02  -1.1592040236628836e-02  -1.1594720945199973e-02  -1.1601259795021196e-02  -1.1611518446186915e-02  -1.1623976318673583e-02  -1.1636447048766504e-02  -1.1646727186053191e-02  -1.1653309701575467e-02  -1.1655980912425312e-02  -5.1013878772970637e-03  -8.0565450721729784e-02  -9.0957200804365834e-01  -5.5725978341003801e-01  -4.6418641811321737e-01  -4.0470002377577230e-01  -3.6185763451556835e-01  -3.2787206218463966e-01  -2.9970303265905474e-01  -2.8084191654503426e-01  -2.6283982295449448e-01  -2.4723697757704413e-01  -2.3229897628445195e-01  -2.1790340229653762e-01  -2.0378293479277962e-01  2.0002803664448076e-02  3.6576113087423527e-02  4.1544565631840696e-02  3.9402097537024831e-02  3.4948042473807409e-02  3.0801548810658670e-02  -5.8638819123713060e-01  -1.2227018703046351e-01  2.8158792406845143e-02  2.6972635889843496e-02  2.6973198790670016e-02  -4.6269875751439864e-02  2.7732912280808205e-02  -1.8972400233419304e-01  2.8746090167282228e-02  -1.7515075397141619e-01  2.9916725926534271e-02  -9.2355477270629413e-02  -6.5188388211046999e-02  3.0971311440693376e-02  -3.8812784712388484e-02  -1.6051267320792925e-01  -5.7581445744806685e-03  3.1593545783866452e-02  -1.4509626478286247e-01  -2.2669830532493832e-02  3.1769123831983222e-02  2.3611316779196406e-02  -1.5049946821243237e-01  -1.2934019464988350e-01  3.1352649420045731e-02  4.5236299762351675e-02  -1.1160817121985585e-01  4.9131901888917300e-02  3.0211424614462780e-02  4.9353065819384624e-02  -9.4186653872377540e-02  -1.7979967036919309e-01  2.8113212046476408e-02  4.7137209735334695e-02  -2.0568037051800930e-01  4.3505365766791135e-02  2.4633346252033676e-02  -2.1881866784895959e-01  -7.3904593377971797e-02  -5.9856462077981606e-02  3.6747079152216928e-02  2.1160868811488761e-02  1.6907299853819491e-02  3.9383575454853777e-02  -2.1920672359392715e-01  3.3439457979612182e-02  -6.5440681684723345e-01  -2.0665374585623125e-01  2.9071573841586696e-02  -4.2383807365144077e-02  -1.9149548097803987e-01  1.2437624230470170e-02  2.3321817149467971e-02  -1.7429317081291035e-01  -1.4996634640731868e-01  1.9103475911036793e-02  -1.1897730680707166e-01  1.4919620681076273e-02  -1.0019980167977582e-01  -8.1519082143986385e-02  1.0616461204116375e-02  -4.9989154380099148e-02  1.4131875799086209e-03  -1.7198815212389532e-02  -3.5562074272840048e-02  6.3336375612389742e-03  7.0753074759499681e-03  -3.2199813656690168e-02  -5.9808932726855828e-02  -3.0375602981795865e-02  -1.0674087496062017e-01  -2.1409017915351880e-01  -1.6286808439572442e-01  -1.3803211014924924e-01  -3.1923448135615623e-02  6.2577970552526261e-03  -2.5202098066274731e-02  -5.1863461077124362e-02  -7.8453149569051750e-02  -8.3875483727161818e-02  3.6515912563995688e-02  -1.0315539936106345e-01  -6.9314453445739485e-02  2.6161141302210492e-02  2.6544002577389321e-02  -1.2103796252009057e-01  2.9248158987605404e-02  3.0891045397497697e-02  -1.3684901086390314e-01  3.1640020262824933e-02  3.1752850106108406e-02  3.1299981498554674e-02  3.0492024581553284e-02  2.9303545969390780e-02  -1.5289358982855275e-01  2.9332214934418073e-02  2.8224555642333470e-02  -1.6796494230174902e-01  2.7288623293482923e-02  2.6855125580577090e-02  2.7391259168760083e-02  1.6189454741750147e-03  -1.8293389274169203e-01  -1.9623369897180554e-01  -1.6880345199204436e-02  -2.1045914994902937e-01  -2.2504601504390945e-01  -2.3967126878609521e-01  -2.5520851602204919e-01  -2.7167699900904185e-01  -2.8954168162553340e-01  8.2532030233920112e-03  -3.1574738204168906e-01  -3.4689881342678192e-01  -3.8597960288190886e-01  2.9765688707035724e-02  -4.3809122130266359e-01  4.1088844749908350e-02  4.0390111109111622e-02  3.7438264646861362e-02  3.2752332274235761e-02  -5.1391865468886733e-01  -1.3109412179032591e+00  1.1450137215945340e-03  -1.7337522347663555e-02  3.3152876979176569e-03  -3.3055191536855238e-02  -1.6639793059865741e-02  1.7549868584553546e-03  -2.0687508662754917e-02  -3.2229894552107258e-02  -3.1650656796843583e-02  -2.9811730314389811e-02  -3.1798160437887558e-02  -2.9833776988678846e-02  -3.2010445044807288e-02  -2.9404401258539537e-02  -3.1662113471006212e-02  -2.8632298765524242e-02  -3.0749638421803213e-02  -2.7681496187826688e-02  -3.0115895155962098e-02  -2.6972475071457221e-02  -3.1139336198836284e-02  -2.7929288792736547e-02  -3.5016322819206226e-02  -3.1674379559402714e-02  -4.2228022707851240e-02  -3.8658176292679841e-02  -5.2353927827135063e-02  -4.7470467736703721e-02  -5.8223754801677623e-02  -3.2390990967858288e-02  -4.2926500014299561e-02  -6.9390044699059336e-02  -7.7333219948383172e-02  -2.9190607081334349e-02  -3.8758951682713247e-02  -2.4359366806850268e-02  -3.5513077314229730e-02  -2.0058654373541016e-02  -3.3327118311496831e-02  -1.6310250649014663e-02  -2.9274437941063422e-02  -1.2648656657608944e-02  -2.8835934642265953e-02  -1.0667204467419963e-02  -2.4740527728949746e-02  -8.1280811023089500e-03  -2.2894244000002104e-02  -6.2554009684239516e-03  -2.1150504122605284e-02  -4.8133271794610355e-03  -1.9829880602367168e-02  -3.6816774580273486e-03  -1.8127332085008149e-02  -2.7391044195299993e-03  -1.6906003887473129e-02  -1.9825317365119157e-03  -1.5318158290192195e-02  -2.1260193676589860e-03  -1.3819818467867062e-02  4.5226110135142430e-04  -8.8512228233154425e-02  -1.0041178257868080e-01  -1.2712139301651304e-02  7.0413082804798234e-05  -1.0442217196687559e-02  1.2640287193755547e-03  -8.9791910770665676e-03  2.3118415883975410e-03  -6.9130490467295075e-03  3.6132571937367041e-03  -5.3611388222916112e-02  -4.5489854619806371e-03  5.0897997208387584e-03  -3.2101149462454323e-03  6.5531323619770869e-03  5.8312392484895833e-04  8.5360160208121857e-03  -1.0838280621903085e-01  -1.2545243558041722e-01  -3.3580327862702188e-02  3.2544704949518648e-03  1.0515759375250587e-02  6.2127560378150539e-03  1.2585370052275184e-02  9.1531395212846416e-03  1.4751407259525772e-02  -9.3513904753691729e-02  1.2181329532109876e-02  1.6971892371361926e-02  -4.7582584931871806e-02  1.5207490364010978e-02  1.9208700244783741e-02  1.8198854460326590e-02  2.1458953762670315e-02  2.1169660149128931e-02  2.3632573872812788e-02  -2.3211899312533937e-02  -3.9945770131406086e-02  2.3995355635588394e-02  2.5784271786161314e-02  -1.2770436104781768e-01  -1.4551184958512089e-01  -1.1387126286916507e-01  -3.3464135396323091e-02  2.6709938418906336e-02  2.7851565335315673e-02  2.9296835210973798e-02  2.9793740655833297e-02  3.1685729275096150e-02  3.1564359442009221e-02  1.5645976459025539e-02  2.7021806972228897e-02  1.9487143476410292e-02  1.2956661239063588e-02  3.3878829092549641e-02  3.3202995971786213e-02  3.0967756555096326e-02  3.2107890182613348e-02  3.4662214248246268e-02  3.3131099164702735e-02  3.5923408667537710e-02  3.4057018040638744e-02  3.7044275242249847e-02  3.4924515486172723e-02  3.7994501427230362e-02  3.5638248014534843e-02  3.8762322103423716e-02  3.6237454902464265e-02  3.9446986013817291e-02  3.6750761825560876e-02  3.9885525958014340e-02  3.6994357359477661e-02  4.0186085888339211e-02  3.7292529058839168e-02  4.0384737251582696e-02  3.7463089010601629e-02  4.0551727177590501e-02  3.7579368637685018e-02  1.0976647998329149e-02  -2.7890048695229389e-02  4.0524292255240596e-02  3.7577922768303060e-02  4.0315377476935393e-02  3.7525314133768840e-02  -6.5867813082927324e-03  1.0859758441223472e-02  4.0029657987801219e-02  3.7361751459026926e-02  6.9340037897003236e-03  -1.9287762850267787e-02  -1.4301072008514143e-01  -1.6190773810577325e-01  -1.7213670448431717e-01  -1.8648441691943460e-01  -2.0544274235458646e-01  -2.1418831123672483e-01  -2.4655542495043897e-01  -2.4522751307791524e-01  -2.8126519824724106e-01  -2.7373429599018628e-01  -3.1674690710597003e-01  -2.9908530950305362e-01  -3.4129795933400392e-01  -3.1806706707364940e-01  -3.5742200917291905e-01  -3.3122378699243249e-01  -3.6506288078221594e-01  -3.3810119958441393e-01  -3.6642212091012921e-01  -3.4001245741096076e-01  -3.6320662568377293e-01  -3.3848150407594785e-01  -3.5743864786126373e-01  -3.3484013132297719e-01  -3.5018392170211915e-01  -3.2993127365784641e-01  -3.4119651530229578e-01  -3.2271202216764766e-01  -3.1010110843922001e-01  -3.0613117424766972e-01  -3.1683542573436252e-01  -3.0178593967076833e-01  -3.1179771783294202e-01  -2.9739465563708434e-01  -3.0503562369898285e-01  -2.9228389387913800e-01  -2.8989770956617444e-01  -2.9138901057408151e-01  -3.1534558085653824e-01  -2.9865635707565613e-01  -2.8708047266129944e-01  -2.7936125080946367e-01  -2.7554560049804583e-01  -2.8185958860733051e-01  -2.7176666611204869e-01  -2.7655204180567799e-01  -2.6752431830222717e-01  -2.7125339000083104e-01  -2.6282014024878136e-01  -2.6450351391433524e-01  -2.2811483656692952e-01  -3.6853662587969882e-01  -2.6605679787720027e-01  -2.5823820831720251e-01  -2.5445979398164287e-01  -2.5043294682716855e-01  -2.5368491656596170e-01  -2.4659916115422370e-01  -2.4900546016869624e-01  -2.4252120176930042e-01  -3.9948997324994401e-01  -2.4295269145639017e-01  -2.4435122851312721e-01  -2.3846259460913527e-01  -3.9070096802793819e-01  -2.3984742588815985e-01  -2.3419670390928521e-01  -2.3280966994605393e-01  -2.2854835389072320e-01  -2.2985723395071675e-01  -2.2447234389049767e-01  -2.2282536479382772e-01  -2.1911483783595473e-01  -2.2037520277087821e-01  -2.1530498611883200e-01  -2.1620452916520555e-01  -2.1131382339972443e-01  -2.1032064469379938e-01  -2.0657154661087149e-01  -2.0721643290570654e-01  -2.0270172847620074e-01  -2.0309528013112707e-01  -1.9874053053151783e-01  -1.9298096758448696e-01  -3.2640964485330787e-01  -3.7013479454190973e-01  -1.9900295493856357e-01  -1.9474863521173999e-01  -1.9442257071031874e-01  -1.9041826645485993e-01  -1.9054460639025669e-01  -1.8636385216803444e-01  -1.9007544000048493e-01  3.9770443141185607e-02  3.7171958015059743e-02  3.9371725349969550e-02  3.6885539978558417e-02  3.8874377056552258e-02  3.6526403461988939e-02  -2.8622249239495884e-01  -4.5416492982573017e-03  -3.3885997880401385e-02  -1.8627286215413164e-01  -1.8226707098351536e-01  -3.1014306301648381e-01  3.3315074293248356e-02  3.5024507044642772e-02  3.0145939356180072e-02  3.8291392445313981e-02  3.6107429025411156e-02  3.4525236967443300e-02  3.4253982665526227e-02  3.5625000904199268e-02  3.3910658404106495e-02  3.5068118517697318e-02  3.3503159756482798e-02  3.4461573200644434e-02  3.3060045768124234e-02  3.3793629817191563e-02  3.2546481737590192e-02  3.3073194875546177e-02  3.1973750470974290e-02  3.2302518103303618e-02  3.1335501742005153e-02  3.1460978239154266e-02  3.0637409436449829e-02  3.0568706203919369e-02  2.9870776631894427e-02  2.9611272532271839e-02  2.9037712663854555e-02  2.8588257085941558e-02  2.8137902723866220e-02  2.7511764913131866e-02  2.7163826350391780e-02  2.6391580074902075e-02  2.6132778113046682e-02  2.5236851379725145e-02  2.5036091250952529e-02  2.3934725669650984e-02  2.3867232485257392e-02  3.4988812695325437e-02  -2.0564721785106965e-01  -2.5606035248720382e-01  -1.8191007065454615e-01  -1.7801125216062244e-01  -1.7830935972655268e-01  -1.7398872561547660e-01  -1.7431486220391132e-01  -1.6996811397533418e-01  -1.6964468380951528e-01  -1.6566470594194904e-01  -1.6511947628281637e-01  -1.6122641760240677e-01  -1.6168000991225276e-01  -1.5729521797111790e-01  -1.5690070384193200e-01  -1.5290564526554029e-01  -1.5244609