<?xml version="1.0"?>
<VTKFile type="UnstructuredGrid"  version="0.1"  >
<UnstructuredGrid>
<Piece  NumberOfPoints="2886" NumberOfCells="5412">
<Points>
<DataArray  type="Float64"  NumberOfComponents="3"  format="ascii">0 0.1 0  0.98 0.1 0  1 0.1 0  1 0 0  1.5 0 0  3 0 0  3 0.3 0  0 0.3 0  0.01975375321854102 0.1 0  0.03918897458218897 0.1 0  0.05831079002627837 0.1 0  0.07712425666319796 0.1 0  0.0956343475259058 0.1 0  0.1138459546796227 0.1 0  0.1317638870668193 0.1 0  0.1493928840275937 0.1 0  0.1667376092280033 0.1 0  0.1838026357802664 0.1 0  0.2005924801287244 0.1 0  0.2171115811543574 0.1 0  0.2333643037107681 0.1 0  0.2493549444060462 0.1 0  0.2650877293306821 0.1 0  0.2805668058011438 0.1 0  0.2957962848620976 0.1 0  0.3107801766802674 0.1 0  0.3255224447361181 0.1 0  0.3400269848175519 0.1 0  0.3542976327080778 0.1 0  0.3683381609158136 0.1 0  0.3821522744564845 0.1 0  0.3957436316838916 0.1 0  0.4091158196437086 0.1 0  0.4222723742184605 0.1 0  0.4352167733293057 0.1 0  0.4479524348643424 0.1 0  0.4604827295467524 0.1 0  0.4728109659990664 0.1 0  0.4849404035409129 0.1 0  0.4968742471455402 0.1 0  0.508615651843175 0.1 0  0.520167721130924 0.1 0  0.5315335063628542 0.1 0  0.5427160117228604 0.1 0  0.5537181940261912 0.1 0  0.564542961924507 0.1 0  0.575193173270606 0.1 0  0.5856716438765114 0.1 0  0.5959811458006617 0.1 0  0.6061243988680743 0.1 0  0.6161040893285659 0.1 0  0.6259228503970299 0.1 0  0.6355832809287655 0.1 0  0.6450879281079505 0.1 0  0.6544393102991295 0.1 0  0.663639896558931 0.1 0  0.6726921201956305 0.1 0  0.6815983691630338 0.1 0  0.6903610031396646 0.1 0  0.6989823343332418 0.1 0  0.7074646404270378 0.1 0  0.7158101645005117 0.1 0  0.7240211149852543 0.1 0  0.7320996585612525 0.1 0  0.7400479319727645 0.1 0  0.7478680336617921 0.1 0  0.755562036504958 0.1 0  0.7631319665092091 0.1 0  0.7705798279317605 0.1 0  0.777907588066146 0.1 0  0.7851171851013118 0.1 0  0.7922105226004981 0.1 0  0.7991894774550319 0.1 0  0.8060558928136696 0.1 0  0.812811583201334 0.1 0  0.8194583352091183 0.1 0  0.8259979035038147 0.1 0  0.8324320194413813 0.1 0  0.8387623808293405 0.1 0  0.8449906627004957 0.1 0  0.8511185094880469 0.1 0  0.8571475426008311 0.1 0  0.8630793533568246 0.1 0  0.8689155114558531 0.1 0  0.8746575581239063 0.1 0  0.8803070109173519 0.1 0  0.885865363938836 0.1 0  0.8913340851680313 0.1 0  0.8967146206523592 0.1 0  0.9020083930695622 0.1 0  0.9072167995950768 0.1 0  0.9123412183131177 0.1 0  0.9173830029719022 0.1 0  0.9223434865647732 0.1 0  0.9272239785872722 0.1 0  0.9320257720706087 0.1 0  0.9367501330378739 0.1 0  0.9413983102716995 0.1 0  0.9459715351562933 0.1 0  0.9504710127113115 0.1 0  0.9548979346500661 0.1 0  0.9592534708344373 0.1 0  0.9635387708980176 0.1 0  0.9677549682252325 0.1 0  0.971903177251235 0.1 0  0.9759844952956497 0.1 0  0.9840000000000086 0.1 0  0.987999999999974 0.1 0  0.9919999999999393 0.1 0  0.9959999999999913 0.1 0  1 0.09591793123533533 0  1 0.09133596463859224 0  1 0.08619288104391448 0  1 0.08041996484521211 0  1 0.07394008421771697 0  1 0.06666666567302955 0  1 0.05850252932209174 0  1 0.04933859630113544 0  1 0.03905242821848202 0  1 0.02750659386753798 0  1 0.01454683679239736 0  1.015625 0 0  1.03125 0 0  1.046875 0 0  1.0625 0 0  1.078125 0 0  1.09375 0 0  1.109375 0 0  1.125 0 0  1.140625 0 0  1.15625 0 0  1.171875 0 0  1.1875 0 0  1.203125 0 0  1.21875 0 0  1.234375 0 0  1.25 0 0  1.265625 0 0  1.28125 0 0  1.296875 0 0  1.3125 0 0  1.328125 0 0  1.34375 0 0  1.359375 0 0  1.375 0 0  1.390625 0 0  1.40625 0 0  1.421875 0 0  1.4375 0 0  1.453125 0 0  1.46875 0 0  1.484375 0 0  1.515920751924515 0 0  1.531989369316721 0 0  1.54820720925872 0 0  1.564575665560501 0 0  1.581096138674279 0 0  1.597770029901263 0 0  1.614598783332311 0 0  1.631583831055205 0 0  1.64872661129721 0 0  1.666028606716533 0 0  1.683491276608443 0 0  1.701116134125304 0 0  1.718904673324128 0 0  1.736858414799339 0 0  1.754978895814663 0 0  1.773267661782904 0 0  1.791726281103402 0 0  1.810356325314689 0 0  1.8291593848892 0 0  1.848137076690385 0 0  1.867291007717254 0 0  1.886622833871288 0 0  1.90613418642363 0 0  1.925826753299799 0 0  1.945702199101513 0 0  1.96576223584749 0 0  1.986008569283268 0 0  2.006442931928877 0 0  2.02706707547783 0 0  2.047882750887917 0 0  2.06889175187935 0 0  2.090095860038271 0 0  2.111496891648636 0 0  2.133096679109554 0 0  2.154897066851056 0 0  2.176899916687499 0 0  2.199107102752146 0 0  2.22152053937028 0 0  2.244142122958061 0 0  2.266973806444078 0 0  2.290017523268154 0 0  2.313275249499252 0 0  2.336748971745516 0 0  2.360440702338606 0 0  2.384352453384031 0 0  2.408486280477412 0 0  2.432844240041185 0 0  2.457428414757088 0 0  2.482240901796653 0 0  2.507283830121838 0 0  2.532559332080812 0 0  2.558069568787417 0 0  2.583816724966441 0 0  2.60980299606584 0 0  2.636030600971886 0 0  2.662501790984011 0 0  2.689218818279327 0 0  2.716183964547616 0 0  2.743399548861297 0 0  2.77086788244719 0 0  2.798591312896326 0 0  2.826572223178268 0 0  2.854812990138617 0 0  2.883316031690714 0 0  2.912083780657189 0 0  2.941118704633482 0 0  2.970423276998917 0 0  3 0.02999999999994495 0  3 0.05999999999987042 0  3 0.089999999999783 0  3 0.119999999999701 0  3 0.149999999999619 0  3 0.179999999999692 0  3 0.2099999999997737 0  3 0.2399999999998511 0  3 0.2699999999999185 0  2.970138294777171 0.3 0  2.940375666438236 0.3 0  2.910711782853056 0.3 0  2.881146331305122 0.3 0  2.851678975030285 0.3 0  2.822309388626621 0.3 0  2.793037250095074 0.3 0  2.76386223529133 0.3 0  2.734784017903872 0.3 0  2.705802289276642 0.3 0  2.676916713794697 0.3 0  2.648126987654635 0.3 0  2.619432780406184 0.3 0  2.590833779385199 0.3 0  2.562329669847737 0.3 0  2.533920134950189 0.3 0  2.505604855727852 0.3 0  2.477383539822502 0.3 0  2.449255847639465 0.3 0  2.421221492569094 0.3 0  2.393280152486815 0.3 0  2.36543151914496 0.3 0  2.337675285481809 0.3 0  2.310011142385583 0.3 0  2.282438797441587 0.3 0  2.254957931061538 0.3 0  2.227568248063605 0.3 0  2.200269436651085 0.3 0  2.173061204949961 0.3 0  2.145943251515011 0.3 0  2.118915272469994 0.3 0  2.091976978084957 0.3 0  2.065128060700849 0.3 0  2.038368218849433 0.3 0  2.01169717777258 0.3 0  1.985114624111908 0.3 0  1.958620267850966 0.3 0  1.93221382054972 0.3 0  1.905894991850698 0.3 0  1.879663489459713 0.3 0  1.853519019126419 0.3 0  1.827461291053897 0.3 0  1.801490031354372 0.3 0  1.775604937580312 0.3 0  1.74980572560258 0.3 0  1.724092118631866 0.3 0  1.698463829173586 0.3 0  1.672920575782554 0.3 0  1.647462076974085 0.3 0  1.622088043536933 0.3 0  1.5967981978949 0.3 0  1.571592267767068 0.3 0  1.546469970305736 0.3 0  1.521431023814044 0.3 0  1.496475156230927 0.3 0  1.471602093687753 0.3 0  1.446811560490646 0.3 0  1.422103279101731 0.3 0  1.397476971708191 0.3 0  1.37293238939876 0.3 0  1.348469231419202 0.3 0  1.324087248732772 0.3 0  1.299786165921677 0.3 0  1.275565710847046 0.3 0  1.251425617644257 0.3 0  1.227365618676339 0.3 0  1.203385446174014 0.3 0  1.179484853067473 0.3 0  1.155663548773374 0.3 0  1.131921292279077 0.3 0  1.108257802159295 0.3 0  1.084672829009693 0.3 0  1.061166115303374 0.3 0  1.037737392995421 0.3 0  1.01438640299116 0.3 0  0.991112899770314 0.3 0  0.9679166155523955 0.3 0  0.944797284182564 0.3 0  0.921754678526042 0.3 0  0.8987885143602501 0.3 0  0.8758985548820624 0.3 0  0.8530845484099929 0.3 0  0.8303462351786988 0.3 0  0.8076833651172373 0.3 0  0.7850956864865304 0.3 0  0.7625829601354557 0.3 0  0.7401449314598274 0.3 0  0.717781337993959 0.3 0  0.6954919649675473 0.3 0  0.6732765357561226 0.3 0  0.6511348120768439 0.3 0  0.6290665642016573 0.3 0  0.6070715355430467 0.3 0  0.5851494825775325 0.3 0  0.5633001690203812 0.3 0  0.5415233562273221 0.3 0  0.5198187909431873 0.3 0  0.4981862401387795 0.3 0  0.4766254686134248 0.3 0  0.4551362360485234 0.3 0  0.4337182975262159 0.3 0  0.4123714223228037 0.3 0  0.3910953802377493 0.3 0  0.3698899313205595 0.3 0  0.3487548463710963 0.3 0  0.3276898864081783 0.3 0  0.3066948129116018 0.3 0  0.2857694003037476 0.3 0  0.2649134227095047 0.3 0  0.2441266417321288 0.3 0  0.2234088223399122 0.3 0  0.2027597568977288 0.3 0  0.1821792020676698 0.3 0  0.1616669305402443 0.3 0  0.1412227158799362 0.3 0  0.12084633013886 0.3 0  0.1005375673448281 0.3 0  0.08029618164595353 0.3 0  0.06012194778526769 0.3 0  0.04001466495039718 0.3 0  0.01997408913631205 0.3 0  0 0.2800000000000553 0  0 0.2600000000001105 0  0 0.2400000000001658 0  0 0.2200000000002211 0  0 0.2000000000002764 0  0 0.1800000000002244 0  0 0.1600000000001691 0  0 0.140000000000115 0  0 0.1200000000000564 0  1.13346801534201 0.01255848438672509 0  1.003577645172735 0.09351054173913405 0  0.9777559943702486 0.1034978156913738 0  0.9524533750752109 0.1040889939962738 0  0.9296242411226409 0.1041520033606139 0  0.9046110503652111 0.104409422380137 0  0.8777709649694228 0.1053360318797398 0  0.8483859145648608 0.1061007868330701 0  0.8162363822948977 0.1052777104363292 0  0.7893110024210437 0.1060761643971561 0  0.7587949382612539 0.1067265405088633 0  0.7280603867732535 0.1069398153264939 0  0.6947001989413015 0.1075609887579097 0  0.6590363283767549 0.1076715322596598 0  0.6210028614493155 0.1072970410408442 0  1.1953125 0.01353164693413185 0  1.258193991486058 0.01269648635163345 0  1.3201967268638 0.01407907077719561 0  1.383538555392096 0.01434101079053473 0  1.445312500000001 0.01303671693628424 0  1.508925448095738 0.01398525724792267 0  0.9939176689634008 0.1034638089837981 0  1.120967497222226 0.2796788492172345 0  1.572835902117391 0.01424132418857359 0  1.637573277451887 0.01212536916586023 0  1.709730776795181 0.01466855431023635 0  1.005631976950563 0.07074019818158772 0  1.784944696816299 0.01454708406461822 0  0.5805605730631225 0.1101465090472147 0  1.855621181165637 0.01550931272897607 0  0.5366111276616774 0.1096761308243709 0  1.935200147913231 0.01760344159641829 0  1.214922267975168 0.2799787705802257 0  1.31178773425331 0.2792
[...]
<PointData  Scalars="pressure"> 
<DataArray  type="Float64"  Name="pressure"  format="ascii">2.5734951177463863e-03  -1.1280255811859858e+00  2.8020663536547676e-03  3.4823142264295446e-03  9.3176858360996487e-03  0.0000000000000000e+00  0.0000000000000000e+00  2.6548690417932137e-03  -3.3525884986060667e-03  -9.1839082425314491e-03  -1.4922329841773434e-02  -2.0569456768405291e-02  -2.6127024356280414e-02  -3.1596632135417871e-02  -3.6979631649094791e-02  -4.2277995474249312e-02  -4.7493083250599075e-02  -5.2626453913744688e-02  -5.7680031317986075e-02  -6.2655348147431664e-02  -6.7553770617355929e-02  -7.2377422497290636e-02  -7.7127913760657363e-02  -8.1806154273811008e-02  -8.6415214737817783e-02  -9.0956184626848693e-02  -9.5430852609512118e-02  -9.9841873677031914e-02  -1.0419055566003553e-01  -1.0847800422183645e-01  -1.1270803797061894e-01  -1.1688156315609791e-01  -1.2100206132464157e-01  -1.2507103835959130e-01  -1.2908954652583410e-01  -1.3306141956525092e-01  -1.3698960335790533e-01  -1.4087574592304808e-01  -1.4472260408606899e-01  -1.4853382520624858e-01  -1.5231094700720277e-01  -1.5605842784325816e-01  -1.5977848405827327e-01  -1.6347530700114965e-01  -1.6715205574344233e-01  -1.7080744694978020e-01  -1.7445377129750320e-01  -1.7808942857514334e-01  -1.8171866240834686e-01  -1.8534824834598349e-01  -1.8898172034571642e-01  -1.9261604190371392e-01  -1.9626785253574650e-01  -1.9993495379167858e-01  -2.0362317265490865e-01  -2.0733868788366078e-01  -2.1108628867004237e-01  -2.1487165802179781e-01  -2.1870237254329691e-01  -2.2258343541913470e-01  -2.2652031912684836e-01  -2.3051881284406348e-01  -2.3459310899738706e-01  -2.3874234312295908e-01  -2.4297785037750524e-01  -2.4730235758594377e-01  -2.5173862792085877e-01  -2.5628907791419392e-01  -2.6095123746293802e-01  -2.6574622008607718e-01  -2.7069367729805072e-01  -2.7578638920197796e-01  -2.8105330124508709e-01  -2.8650470613174933e-01  -2.9214247829757894e-01  -2.9799289124879530e-01  -3.0407186478013376e-01  -3.1039632701379022e-01  -3.1700103648996947e-01  -3.2389427377130081e-01  -3.3108901931570756e-01  -3.3860238902149359e-01  -3.4652004530853575e-01  -3.5483415173191568e-01  -3.6357590859421557e-01  -3.7280702916194502e-01  -3.8256047415781680e-01  -3.9289417119869147e-01  -4.0386484500226705e-01  -4.1558136219300562e-01  -4.2810827559604125e-01  -4.4151967583574775e-01  -4.5598619417252506e-01  -4.7165099287389589e-01  -4.8869603417962582e-01  -5.0736660667256817e-01  -5.2796383699903271e-01  -5.5088227054520167e-01  -5.7666791663356931e-01  -6.0607939706311420e-01  -6.4019377635442110e-01  -6.8051655925330501e-01  -7.3002165806184449e-01  -7.9310096235252681e-01  -8.7738560408074295e-01  -1.0223890883572309e+00  -2.3398333389633423e+00  -2.0359280596009142e+00  -1.3943441577010307e+00  -7.9502446356105194e-01  -1.6294393626222847e-01  -6.5143938039388435e-02  -4.7010849546356669e-02  -2.9641227643258643e-02  -1.8813335046916964e-02  -1.1292202943985974e-02  -5.8205719760109006e-03  -1.4359916763810958e-03  1.9755351052750773e-03  4.1087920512274199e-03  4.2846310671434615e-03  2.4983837266418073e-03  2.7721185175029863e-03  5.0731911848891052e-03  9.3760475013564947e-03  1.5674063674888005e-02  2.3757047037238455e-02  3.3277269707316877e-02  4.3726722199779335e-02  5.4283647944501162e-02  6.4209618104039620e-02  7.2893873041114665e-02  7.9848687845482560e-02  8.4842181650357673e-02  8.7773987641809215e-02  8.8659121467077912e-02  8.7697162870316619e-02  8.5138329528171491e-02  8.1256219661419396e-02  7.6393840167271965e-02  7.0800063636159774e-02  6.4669335126914640e-02  5.8410290318059166e-02  5.2014113436142199e-02  4.5785552497176522e-02  3.9803460978455593e-02  3.4155589221152464e-02  2.8889280471418619e-02  2.4060953242208232e-02  1.9680714701237723e-02  1.5773781023452452e-02  1.2323926297846602e-02  6.6916103498691247e-03  4.4621812502711189e-03  2.6250611107091338e-03  1.1331820215420285e-03  -2.4753942062892757e-05  -8.3047824700429782e-04  -1.4139469316009803e-03  -1.7210732227725086e-03  -1.7723265965528126e-03  -1.6134773958879044e-03  -1.2856709351568706e-03  -7.9089250407320209e-04  -1.4668607635163664e-04  6.1614839862162167e-04  1.4835503495669651e-03  2.4403641147377887e-03  3.4618379620760761e-03  4.5417070493875772e-03  5.6650743679331796e-03  6.8140591357510700e-03  7.9829919204938427e-03  9.1564852124764520e-03  1.0322779366870866e-02  1.1481134556965356e-02  1.2612208734690905e-02  1.3720893713179274e-02  1.4787863122878834e-02  1.5814096017374126e-02  1.6791118389031395e-02  1.7716344772182629e-02  1.8585651259763081e-02  1.9392402670632858e-02  2.0134304446040904e-02  2.0808101966935701e-02  2.1410768030569249e-02  2.1940096109147923e-02  2.2393600820741294e-02  2.2770240862153145e-02  2.3067965264748958e-02  2.3286534449177665e-02  2.3425525645984199e-02  2.3484187667532897e-02  2.3462307268561741e-02  2.3360791073875668e-02  2.3178136066426068e-02  2.2915302509963129e-02  2.2576108926987210e-02  2.2158267542636723e-02  2.1658702871657276e-02  2.1094710027814385e-02  2.0447131045500833e-02  1.9738294025584854e-02  1.8948683552822629e-02  1.8100700381669829e-02  1.7184206714972974e-02  1.6193987631704508e-02  1.5153871154665448e-02  1.4040919123969892e-02  1.2877031574580495e-02  1.1654555237285145e-02  1.0375194825761293e-02  9.0390373947934772e-03  7.6525157580956318e-03  6.2199585528951388e-03  4.7344576199570667e-03  3.2146793745243206e-03  1.6441105349549569e-03  0.0000000000000000e+00  0.0000000000000000e+00  0.0000000000000000e+00  0.0000000000000000e+00  0.0000000000000000e+00  0.0000000000000000e+00  0.0000000000000000e+00  0.0000000000000000e+00  0.0000000000000000e+00  1.9117462297075934e-03  3.7029462449500927e-03  5.4576999810537867e-03  7.1658323362038629e-03  8.8296570604569913e-03  1.0449698954724380e-02  1.2026036014879816e-02  1.3558390392517437e-02  1.5046249542048046e-02  1.6489067135111408e-02  1.7885329448201176e-02  1.9234559708851458e-02  2.0534383697098618e-02  2.1784081372860101e-02  2.2981606251535763e-02  2.4123717642859862e-02  2.5210368374652195e-02  2.6235645554745477e-02  2.7196836359431070e-02  2.8089362868740319e-02  2.8908852807561555e-02  2.9648247899216964e-02  3.0304202873766707e-02  3.0867099222057191e-02  3.1326414552857153e-02  3.1677970008588845e-02  3.1908670955224115e-02  3.2006008726512686e-02  3.1960011966764984e-02  3.1759688803398044e-02  3.1390060918661297e-02  3.0835107281315628e-02  3.0101148691665087e-02  2.9164192934851382e-02  2.7992467421645923e-02  2.6616415847900428e-02  2.4998447039324884e-02  2.3147750540495511e-02  2.1051322220719752e-02  1.8721846701506117e-02  1.6151106818461866e-02  1.3346769830844736e-02  1.0326635244942570e-02  7.0976795088086228e-03  3.6771843672863307e-03  8.4935550445788911e-05  -3.6610541854485350e-03  -7.5373504813901994e-03  -1.1519018557002159e-02  -1.5577296951934116e-02  -1.9691803926449758e-02  -2.3838916595313907e-02  -2.7995751005468646e-02  -3.2145211010897144e-02  -3.6270617169818595e-02  -4.0358674197148579e-02  -4.4403267836407370e-02  -4.8404394596795464e-02  -5.2359650944335590e-02  -5.6278165860104389e-02  -6.0176402101381268e-02  -6.4073580639100708e-02  -6.7998012182148584e-02  -7.1985029310220230e-02  -7.6080394402852705e-02  -8.0337573847704763e-02  -8.4818418052052688e-02  -8.9606634131528778e-02  -9.4779826874097028e-02  -1.0044346776419534e-01  -1.0670742537740083e-01  -1.1367175043403538e-01  -1.2142259682831284e-01  -1.2998669464085091e-01  -1.3922886086849678e-01  -1.4900524145415148e-01  -1.5888593669539072e-01  -1.6845447658506155e-01  -1.7725117075002753e-01  -1.8503945413342748e-01  -1.9121519768836615e-01  -1.9585601791052973e-01  -1.9883376742143577e-01  -2.0056789329334432e-01  -2.0092297329958764e-01  -2.0000354077942956e-01  -1.9816184536942150e-01  -1.9549029997275744e-01  -1.9204809348305910e-01  -1.8804700587358195e-01  -1.8352661939991149e-01  -1.7866876056741995e-01  -1.7350052842437758e-01  -1.6804580739057437e-01  -1.6242688409131723e-01  -1.5665741883031489e-01  -1.5075014337842499e-01  -1.4474372268773419e-01  -1.3867293052104196e-01  -1.3255135201947288e-01  -1.2638535634508233e-01  -1.2019274618378765e-01  -1.1397630732019269e-01  -1.0775487718772925e-01  -1.0152514241448141e-01  -9.5296007565883495e-02  -8.9071273946718446e-02  -8.2852709268326760e-02  -7.6644496064887976e-02  -7.0447933758894715e-02  -6.4264142726605536e-02  -5.8094854082161140e-02  -5.1941116451958952e-02  -4.5803629463027865e-02  -3.9682964012774546e-02  -3.3580065666418225e-02  -2.7494770478514848e-02  -2.1427604268082396e-02  -1.5378935352529250e-02  -9.3487707444057672e-03  -3.3374688327676752e-03  2.6545544492699875e-03  2.6511714288016889e-03  2.6429108916962872e-03  2.6299449740167136e-03  2.6141962014224179e-03  2.5984311462571822e-03  2.5854380421193811e-03  2.5771223594515335e-03  2.5737514169371198e-03  4.8329466022174604e-02  -6.2928183868193793e-02  -1.1478340851222122e+00  -6.2734651530035590e-01  -5.0065357165391444e-01  -4.2335806366792567e-01  -3.6977963279790727e-01  -3.2867636984086535e-01  -2.9563889567250085e-01  -2.7409188827634018e-01  -2.5396809429887141e-01  -2.3687951259484419e-01  -2.2081775131934211e-01  -2.0559122257052476e-01  -1.9086603485040454e-01  8.0780649711212349e-02  8.5090048145658362e-02  6.6917525275036777e-02  4.2209995468497755e-02  2.1895805233249792e-02  8.0889206905025626e-03  -6.7863262629209009e-01  -1.0264108566941582e-01  9.2038309501763968e-04  -1.4239517998635039e-03  -1.5580947291284541e-04  -1.4717735845441648e-02  3.3573993508887170e-03  -1.7637858188968136e-01  7.4969869112985303e-03  -1.6149529109977284e-01  1.2204018067034840e-02  -8.2425167210005271e-02  -6.5987650648942797e-02  1.6580827774476250e-02  -5.0465841020922497e-02  -1.4664945881924268e-01  -3.0205731246898921e-02  1.9813361400210568e-02  -1.3109202272612547e-01  1.9807882013944039e-02  2.2225078424930041e-02  -9.7521483983153308e-03  -1.2499926836635175e-01  -1.1524515480140775e-01  2.3389330890769288e-02  1.1557387946348573e-02  -9.7452037363443933e-02  1.9496480360687785e-02  2.3269232502378182e-02  2.5642884544068552e-02  -7.9995960739441180e-02  -1.5214286865817506e-01  2.1937048187817415e-02  2.9448283234694558e-02  -1.7988414082081908e-01  3.1410686639248467e-02  1.9341502976586402e-02  -1.9662261328154021e-01  -5.9691824576352956e-02  -4.5635195715314540e-02  1.6259293096946650e-03  1.6672288190246663e-02  1.3307989389455569e-02  3.1781418960211361e-02  -2.0014865136785953e-01  3.0389989453272072e-02  -7.6603366159186814e-01  -1.9015876417294630e-01  2.8360962175105031e-02  -2.8156750913373288e-02  -1.7603796355407986e-01  9.6867885818160537e-03  2.4584233413864457e-02  -1.5939636951651864e-01  -1.3543749454251600e-01  2.1081075237603886e-02  -1.0463285764877316e-01  1.7123186881983145e-02  -8.5903504303174297e-02  -6.7248626670723788e-02  1.2746117165346052e-02  -3.5737843366014134e-02  1.5756081196078731e-03  -2.9591195514858735e-03  -2.7379753882068284e-04  8.0943057274693916e-03  5.3682099787345063e-03  -1.7952216040656537e-02  -3.3438028519709471e-02  7.5593112251952982e-03  -9.1766459878905957e-02  -1.9657294915308168e-01  -1.4818422209775162e-01  -1.2359680728428271e-01  -1.7694673293578576e-02  -2.2297967557808718e-02  -4.2300209888680898e-02  -5.8159377085350863e-02  -7.3882065491158139e-02  -6.9671711515485624e-02  3.1330004060202706e-02  -8.8980151338461433e-02  -5.5054027709837854e-02  2.6604604717253105e-02  2.0782995935698406e-02  -1.0691017018887292e-01  2.2710112163291662e-02  2.3494329323265634e-02  -1.2279206012302891e-01  2.2963906242548352e-02  2.1165433209017263e-02  1.8123551192770211e-02  1.4535979419172691e-02  3.8439847649640447e-03  -1.3895274155364945e-01  9.8465431554840572e-03  5.3805521210492186e-03  -1.5419730567470860e-01  1.4220869633460578e-03  -1.1191140363783570e-03  -7.7077195326370155e-04  1.2608147018883990e-03  -1.6942848010455830e-01  -1.8306784187400971e-01  -2.6469976907827278e-03  -1.9780704409155284e-01  -2.1311715459148400e-01  -2.2870987372134136e-01  -2.4557234495768290e-01  -2.6379350913235250e-01  -2.8397412831103663e-01  6.7603886433592164e-02  -3.1433485693062779e-01  -3.5152093170779863e-01  -3.9971820468469610e-01  8.6699776096401268e-02  -4.6635847724793900e-01  5.4846787071975427e-02  7.7315859393208189e-02  3.2150763745672176e-02  1.4197161398939983e-02  -5.6755961048640480e-01  -1.6683577845080901e+00  1.6866783315338562e-03  -3.0924469760997084e-03  4.5104581866385034e-03  3.5376677115573924e-03  -2.4098172696907696e-03  1.2746421525826057e-03  -6.4407638652420520e-03  4.7771530194309067e-03  5.3884924981569219e-03  8.0775706623562593e-03  4.9100561312435710e-03  7.8296919167202255e-03  4.6002984048713084e-03  8.5213767329328609e-03  5.2656702416010222e-03  9.7351357262167020e-03  6.3524551878886004e-03  1.0598943520962346e-02  5.8850243886074171e-03  9.9604539569008634e-03  2.0026885291635661e-03  6.0469411764603092e-03  -5.7114181705222354e-03  -1.6971015071566861e-03  -1.7191273303462335e-02  -1.3063732908557323e-02  -3.1118150339999137e-02  -2.5860293761729911e-02  -3.8115208628668240e-02  -5.6457452631835511e-03  -2.1561948339509529e-02  -5.1641578095042377e-02  -6.1025078402864606e-02  -3.1518432098074623e-03  -1.8223393660694229e-02  1.0147127670593081e-03  -1.6779378211047951e-02  3.7981434867933208e-03  -1.7246070576114925e-02  5.2119221819364970e-03  -1.5581296011519643e-02  5.8521025559378284e-03  -1.9347046850671182e-02  3.5498580391932579e-03  -1.8355802019359126e-02  2.0099099511142657e-03  -2.0437469929845072e-02  -6.5452991287419317e-04  -2.2477409058159217e-02  -3.7449043612369083e-03  -2.4932840523063562e-02  -7.0641107310898503e-03  -2.6628057350190693e-02  -1.0309960521149509e-02  -2.8606219907411717e-02  -1.3397743010611909e-02  -2.9858705339059922e-02  -1.7104196455307669e-02  -3.0943595748328927e-02  -1.7408636805003819e-02  -7.2951320934183966e-02  -8.6656829283949410e-02  -3.2029156108602623e-02  -2.0604521873466848e-02  -3.1756017696631555e-02  -2.1525468596917886e-02  -3.1991026215890027e-02  -2.2430335277412384e-02  -3.1402322194566686e-02  -2.2743776511231790e-02  -3.6440526740329687e-02  -3.0372928960927477e-02  -2.2633527610010744e-02  -2.9999497022112489e-02  -2.2319561481564776e-02  -2.7482905626936744e-02  -2.1244615561311211e-02  -9.3480387262545608e-02  -1.1277084858746426e-01  -7.6543903122081351e-04  -2.5743236950485984e-02  -2.0036564073356956e-02  -2.3620056520033572e-02  -1.8547220045208892e-02  -2.1383337336393356e-02  -1.6833036919028186e-02  -8.0350244232736984e-02  -1.8961767652557377e-02  -1.4898155435169282e-02  -3.6894925924570526e-02  -1.6421744466543771e-02  -1.2812370569107419e-02  -1.3790768328673953e-02  -1.0569189381912853e-02  -1.1056854783758813e-02  -8.2614374687844869e-03  1.4816331410264661e-02  -3.8752285809121607e-02  -8.3158625111304889e-03  -5.8500245884137575e-03  -1.1201408284450105e-01  -1.3140370950665323e-01  -9.7459972219735638e-02  -4.1403232368461496e-02  -5.5439122042120923e-03  -3.3548533459775974e-03  -2.7787525810270062e-03  -8.5630811216402683e-04  -3.1786194476784235e-05  1.5545478222367883e-03  -1.4830420035723515e-02  -3.4131327553280854e-03  -1.2273129551203557e-02  -1.4023660027283504e-02  2.6579706907166878e-03  3.9510649877714044e-03  2.8507353550140122e-03  4.9320452333944933e-03  6.2907557545182468e-03  6.9689186741640164e-03  8.5585244826677648e-03  9.0069971250817220e-03  1.0756030011514111e-02  1.1023856604527047e-02  1.2857104732408038e-02  1.2933978437044684e-02  1.4847667328589614e-02  1.4751557479304726e-02  1.6747351858667946e-02  1.6476834769768120e-02  1.8502741917183520e-02  1.8036363596000200e-02  2.0117760401221117e-02  1.9537010891326690e-02  2.1621011403031503e-02  2.0913238879536951e-02  2.3024700050203038e-02  2.2182605737335544e-02  -9.6793201381676700e-03  -4.2717435257676878e-02  2.4263221337448442e-02  2.3321032136468970e-02  2.5318494078062814e-02  2.4335838658660805e-02  2.3875766704780643e-02  1.0663550201400480e-02  2.6264360888944301e-02  2.5222805895109026e-02  2.2331649289627834e-02  -3.9550880987555985e-02  -1.2513454356160128e-01  -1.4522442933263524e-01  -1.6162251244653084e-01  -1.7216785926096864e-01  -1.9824262671571077e-01  -2.0282031551094670e-01  -2.4525162389620711e-01  -2.3762126255234381e-01  -2.8320722683484473e-01  -2.6931172401415693e-01  -3.2349853759277880e-01  -2.9767078845987810e-01  -3.4991994783336478e-01  -3.1864126559802453e-01  -3.6718020987591043e-01  -3.3309663835062170e-01  -3.7478486872871442e-01  -3.4038087472529588e-01  -3.7529419802097591e-01  -3.4198626159863860e-01  -3.7064040273669646e-01  -3.3972380987425677e-01  -3.6320121429921232e-01  -3.3513845708148121e-01  -3.5419806139154497e-01  -3.2919803074226850e-01  -3.4327417219452983e-01  -3.2058895812039490e-01  -3.0492290835281821e-01  -3.0041469914227165e-01  -3.1375803858173829e-01  -2.9554962617204389e-01  -3.0805826033941053e-01  -2.9070374846306124e-01  -3.0032656568004079e-01  -2.8503309511017472e-01  -2.8246583727063868e-01  -2.8221766161643780e-01  -3.1121647737575875e-01  -2.9310397413819672e-01  -2.7931353012788035e-01  -2.6964432995787890e-01  -2.6563704503993230e-01  -2.7361739433565208e-01  -2.6172573012109440e-01  -2.6785192436504685e-01  -2.5727360835041374e-01  -2.6211563575618746e-01  -2.5227706086716939e-01  -2.5274324054129582e-01  -2.2948704618421165e-01  -3.8703377566672925e-01  -2.5650767169825228e-01  -2.4745993631494695e-01  -2.4257305063298509e-01  -2.3845112836458912e-01  -2.4269483710630232e-01  -2.3457440505487590e-01  -2.3779413382188219e-01  -2.3040673533945524e-01  -4.1907860496267374e-01  -2.2990801263005300e-01  -2.3292492893745070e-01  -2.2626503205278919e-01  -4.0538204143664652e-01  -2.2821954761644889e-01  -2.2188202070244348e-01  -2.1985985345870179e-01  -2.1556155577311670e-01  -2.1743688681725989e-01  -2.1147296410695338e-01  -2.0918738009285132e-01  -2.0555372127893223e-01  -2.0735592858311030e-01  -2.0179661110645572e-01  -2.0315246491801703e-01  -1.9783807467031272e-01  -1.9635911060756903e-01  -1.9270153312110874e-01  -1.9375463912828583e-01  -1.8889580866496172e-01  -1.8962630733289684e-01  -1.8497240092912437e-01  -1.7516164435882928e-01  -3.2577486656851967e-01  -3.7904299652742662e-01  -1.8551616052252998e-01  -1.8100320839799169e-01  -1.8037614429162671e-01  -1.7642961676510494e-01  -1.7680611672641505e-01  -1.7241952515143003e-01  -1.7578145434898748e-01  2.7118464647385453e-02  2.5999385443075576e-02  2.7808666715719951e-02  2.6647556581438723e-02  2.8360170738896948e-02  2.7171303846371713e-02  -2.7922583460623596e-01  -3.1026540836232887e-02  2.0989993131350759e-03  -1.7253232471373484e-01  -1.6834775786765094e-01  -3.0686448813335265e-01  1.2684087537805092e-02  2.0044733229369970e-02  3.7867347391395338e-03  2.8782892076071279e-02  2.7573513137444612e-02  2.5870625240861447e-02  2.6274522202830844e-02  2.7860216349837142e-02  2.6560977412473544e-02  2.8022918034859862e-02  2.6736281954432478e-02  2.8088187165950990e-02  2.6824650042952623e-02  2.8045014641005690e-02  2.6806800033445918e-02  2.7911503363871212e-02  2.6704699326021031e-02  2.7698665310229915e-02  2.6498642362853778e-02  2.7385136759285555e-02  2.6205071894304693e-02  2.6976414506280955e-02  2.5817041136270116e-02  2.6471814446945050e-02  2.5344192285201485e-02  2.5901554369132263e-02  2.4794584459448345e-02  2.5261221816573566e-02  2.4158818013697445e-02  2.4539927706801218e-02  2.3457777060856579e-02  2.3704604788130045e-02  2.2666108821875811e-02  2.2896100139762642e-02  2.1826070216925349e-02  2.3985089313516457e-02  -1.9129236930418067e-01  -2.4587343695549352e-01  -1.6815843208801473e-01  -1.6410455864502216e-01  -1.6422167107414939e-01  -1.5993549692776149e-01  -1.6007598712391424e-01  -1.5578324421626991e-01  -1.5561594128689954e-01  -1.5151960522520810e-01  -1.5110467022491975e-01  -1.4711038421727138e-01  -1.4743479383351554e-01  -1.4308967457328320e-01  -1.4280317302429518e-01  -1.3872966651626201e-01  -1.3835