<?xml version="1.0"?>
<VTKFile type="UnstructuredGrid"  version="0.1"  >
<UnstructuredGrid>
<Piece  NumberOfPoints="2945" NumberOfCells="5525">
<Points>
<DataArray  type="Float64"  NumberOfComponents="3"  format="ascii">0 0.1 0  0.95 0.1 0  1 0.1 0  1 0 0  1.5 0 0  3 0 0  3 0.3 0  0 0.3 0  0.0197424558707114 0.1 0  0.03915669042224804 0.1 0  0.05824816022699029 0.1 0  0.07702223050332387 0.1 0  0.09548417327144595 0.1 0  0.1136391897583987 0.1 0  0.1314923700144587 0.1 0  0.1490487330862866 0.1 0  0.1663132263225292 0.1 0  0.1832906857273058 0.1 0  0.1999858946008978 0.1 0  0.216403545770297 0.1 0  0.2325482404045023 0.1 0  0.2484245348165176 0.1 0  0.2640368740372501 0.1 0  0.2793896589642241 0.1 0  0.2944872056237027 0.1 0  0.3093337469555254 0.1 0  0.3239334613687816 0.1 0  0.3382904528528069 0.1 0  0.3524087553122972 0.1 0  0.3662923366391824 0.1 0  0.3799451014768399 0.1 0  0.393370886920506 0.1 0  0.4065734648871676 0.1 0  0.419556546320114 0.1 0  0.4323237821343415 0.1 0  0.4448787573056132 0.1 0  0.4572250047274954 0.1 0  0.4693659926332938 0.1 0  0.4813051343276231 0.1 0  0.4930457849308193 0.1 0  0.5045912455271677 0.1 0  0.5159447600209797 0.1 0  0.5271095174127136 0.1 0  0.5380886618453393 0.1 0  0.5488852725463512 0.1 0  0.5595023868312478 0.1 0  0.5699429904313016 0.1 0  0.5802100167387366 0.1 0  0.5903063508274641 0.1 0  0.6002348329443006 0.1 0  0.6099982499579832 0.1 0  0.6195993483501782 0.1 0  0.6290408246013842 0.1 0  0.6383253354321616 0.1 0  0.6474554910757137 0.1 0  0.6564338522440513 0.1 0  0.6652629482939147 0.1 0  0.6739452579188948 0.1 0  0.6824832240165607 0.1 0  0.6908792415022103 0.1 0  0.6991356755989045 0.1 0  0.7072548438546967 0.1 0  0.7152390281534421 0.1 0  0.7230904746196039 0.1 0  0.7308113906759266 0.1 0  0.7384039435269326 0.1 0  0.7458702676581656 0.1 0  0.7532124631720397 0.1 0  0.7604325921167397 0.1 0  0.7675326856666862 0.1 0  0.7745147374421916 0.1 0  0.7813807123989068 0.1 0  0.7881325374362798 0.1 0  0.7947721131625659 0.1 0  0.8013013031866276 0.1 0  0.8077219449067021 0.1 0  0.8140358419942376 0.1 0  0.8202447685401882 0.1 0  0.8263504700910924 0.1 0  0.8323546643163114 0.1 0  0.8382590362474568 0.1 0  0.8440652473522128 0.1 0  0.8497749272799842 0.1 0  0.8553896837646281 0.1 0  0.8609110933285474 0.1 0  0.866340708855119 0.1 0  0.8716800550492284 0.1 0  0.8769306339052932 0.1 0  0.8820939206038667 0.1 0  0.8871713655604893 0.1 0  0.8921643975475726 0.1 0  0.8970744196575535 0.1 0  0.9019028106970642 0.1 0  0.9066509291259979 0.1 0  0.9113201098984042 0.1 0  0.9159116634553873 0.1 0  0.9204268818729691 0.1 0  0.9248670319440222 0.1 0  0.9292333656649013 0.1 0  0.9335271075812669 0.1 0  0.9377494640511216 0.1 0  0.941901623463222 0.1 0  0.9459847526686701 0.1 0  0.9538461538461205 0.1 0  0.9576923076922409 0.1 0  0.9615384615384381 0.1 0  0.9653846153846337 0.1 0  0.9692307692307542 0.1 0  0.9730769230768747 0.1 0  0.9769230769229952 0.1 0  0.9807692307691157 0.1 0  0.9846153846152361 0.1 0  0.9884615384614317 0.1 0  0.9923076923076356 0.1 0  0.9961538461538395 0.1 0  1 0.09591793123533533 0  1 0.09133596463859224 0  1 0.08619288104391448 0  1 0.08041996484521211 0  1 0.07394008421771697 0  1 0.06666666567302955 0  1 0.05850252932209174 0  1 0.04933859630113544 0  1 0.03905242821848202 0  1 0.02750659386753798 0  1 0.01454683679239736 0  1.015625 0 0  1.03125 0 0  1.046875 0 0  1.0625 0 0  1.078125 0 0  1.09375 0 0  1.109375 0 0  1.125 0 0  1.140625 0 0  1.15625 0 0  1.171875 0 0  1.1875 0 0  1.203125 0 0  1.21875 0 0  1.234375 0 0  1.25 0 0  1.265625 0 0  1.28125 0 0  1.296875 0 0  1.3125 0 0  1.328125 0 0  1.34375 0 0  1.359375 0 0  1.375 0 0  1.390625 0 0  1.40625 0 0  1.421875 0 0  1.4375 0 0  1.453125 0 0  1.46875 0 0  1.484375 0 0  1.515920751924515 0 0  1.531989369316721 0 0  1.54820720925872 0 0  1.564575665560501 0 0  1.581096138674279 0 0  1.597770029901263 0 0  1.614598783332311 0 0  1.631583831055205 0 0  1.64872661129721 0 0  1.666028606716533 0 0  1.683491276608443 0 0  1.701116134125304 0 0  1.718904673324128 0 0  1.736858414799339 0 0  1.754978895814663 0 0  1.773267661782904 0 0  1.791726281103402 0 0  1.810356325314689 0 0  1.8291593848892 0 0  1.848137076690385 0 0  1.867291007717254 0 0  1.886622833871288 0 0  1.90613418642363 0 0  1.925826753299799 0 0  1.945702199101513 0 0  1.96576223584749 0 0  1.986008569283268 0 0  2.006442931928877 0 0  2.02706707547783 0 0  2.047882750887917 0 0  2.06889175187935 0 0  2.090095860038271 0 0  2.111496891648636 0 0  2.133096679109554 0 0  2.154897066851056 0 0  2.176899916687499 0 0  2.199107102752146 0 0  2.22152053937028 0 0  2.244142122958061 0 0  2.266973806444078 0 0  2.290017523268154 0 0  2.313275249499252 0 0  2.336748971745516 0 0  2.360440702338606 0 0  2.384352453384031 0 0  2.408486280477412 0 0  2.432844240041185 0 0  2.457428414757088 0 0  2.482240901796653 0 0  2.507283830121838 0 0  2.532559332080812 0 0  2.558069568787417 0 0  2.583816724966441 0 0  2.60980299606584 0 0  2.636030600971886 0 0  2.662501790984011 0 0  2.689218818279327 0 0  2.716183964547616 0 0  2.743399548861297 0 0  2.77086788244719 0 0  2.798591312896326 0 0  2.826572223178268 0 0  2.854812990138617 0 0  2.883316031690714 0 0  2.912083780657189 0 0  2.941118704633482 0 0  2.970423276998917 0 0  3 0.02999999999994495 0  3 0.05999999999987042 0  3 0.089999999999783 0  3 0.119999999999701 0  3 0.149999999999619 0  3 0.179999999999692 0  3 0.2099999999997737 0  3 0.2399999999998511 0  3 0.2699999999999185 0  2.970138294777171 0.3 0  2.940375666438236 0.3 0  2.910711782853056 0.3 0  2.881146331305122 0.3 0  2.851678975030285 0.3 0  2.822309388626621 0.3 0  2.793037250095074 0.3 0  2.76386223529133 0.3 0  2.734784017903872 0.3 0  2.705802289276642 0.3 0  2.676916713794697 0.3 0  2.648126987654635 0.3 0  2.619432780406184 0.3 0  2.590833779385199 0.3 0  2.562329669847737 0.3 0  2.533920134950189 0.3 0  2.505604855727852 0.3 0  2.477383539822502 0.3 0  2.449255847639465 0.3 0  2.421221492569094 0.3 0  2.393280152486815 0.3 0  2.36543151914496 0.3 0  2.337675285481809 0.3 0  2.310011142385583 0.3 0  2.282438797441587 0.3 0  2.254957931061538 0.3 0  2.227568248063605 0.3 0  2.200269436651085 0.3 0  2.173061204949961 0.3 0  2.145943251515011 0.3 0  2.118915272469994 0.3 0  2.091976978084957 0.3 0  2.065128060700849 0.3 0  2.038368218849433 0.3 0  2.01169717777258 0.3 0  1.985114624111908 0.3 0  1.958620267850966 0.3 0  1.93221382054972 0.3 0  1.905894991850698 0.3 0  1.879663489459713 0.3 0  1.853519019126419 0.3 0  1.827461291053897 0.3 0  1.801490031354372 0.3 0  1.775604937580312 0.3 0  1.74980572560258 0.3 0  1.724092118631866 0.3 0  1.698463829173586 0.3 0  1.672920575782554 0.3 0  1.647462076974085 0.3 0  1.622088043536933 0.3 0  1.5967981978949 0.3 0  1.571592267767068 0.3 0  1.546469970305736 0.3 0  1.521431023814044 0.3 0  1.496475156230927 0.3 0  1.471602093687753 0.3 0  1.446811560490646 0.3 0  1.422103279101731 0.3 0  1.397476971708191 0.3 0  1.37293238939876 0.3 0  1.348469231419202 0.3 0  1.324087248732772 0.3 0  1.299786165921677 0.3 0  1.275565710847046 0.3 0  1.251425617644257 0.3 0  1.227365618676339 0.3 0  1.203385446174014 0.3 0  1.179484853067473 0.3 0  1.155663548773374 0.3 0  1.131921292279077 0.3 0  1.108257802159295 0.3 0  1.084672829009693 0.3 0  1.061166115303374 0.3 0  1.037737392995421 0.3 0  1.01438640299116 0.3 0  0.991112899770314 0.3 0  0.9679166155523955 0.3 0  0.944797284182564 0.3 0  0.921754678526042 0.3 0  0.8987885143602501 0.3 0  0.8758985548820624 0.3 0  0.8530845484099929 0.3 0  0.8303462351786988 0.3 0  0.8076833651172373 0.3 0  0.7850956864865304 0.3 0  0.7625829601354557 0.3 0  0.7401449314598274 0.3 0  0.717781337993959 0.3 0  0.6954919649675473 0.3 0  0.6732765357561226 0.3 0  0.6511348120768439 0.3 0  0.6290665642016573 0.3 0  0.6070715355430467 0.3 0  0.5851494825775325 0.3 0  0.5633001690203812 0.3 0  0.5415233562273221 0.3 0  0.5198187909431873 0.3 0  0.4981862401387795 0.3 0  0.4766254686134248 0.3 0  0.4551362360485234 0.3 0  0.4337182975262159 0.3 0  0.4123714223228037 0.3 0  0.3910953802377493 0.3 0  0.3698899313205595 0.3 0  0.3487548463710963 0.3 0  0.3276898864081783 0.3 0  0.3066948129116018 0.3 0  0.2857694003037476 0.3 0  0.2649134227095047 0.3 0  0.2441266417321288 0.3 0  0.2234088223399122 0.3 0  0.2027597568977288 0.3 0  0.1821792020676698 0.3 0  0.1616669305402443 0.3 0  0.1412227158799362 0.3 0  0.12084633013886 0.3 0  0.1005375673448281 0.3 0  0.08029618164595353 0.3 0  0.06012194778526769 0.3 0  0.04001466495039718 0.3 0  0.01997408913631205 0.3 0  0 0.2800000000000553 0  0 0.2600000000001105 0  0 0.2400000000001658 0  0 0.2200000000002211 0  0 0.2000000000002764 0  0 0.1800000000002244 0  0 0.1600000000001691 0  0 0.140000000000115 0  0 0.1200000000000564 0  1.133778471000506 0.01219539743990768 0  1.003741919047894 0.09354664821474232 0  0.9559421147150347 0.1035858189992458 0  0.9313792160389045 0.1037365237938103 0  0.9788461538460573 0.1033060829993555 0  0.9090102438250753 0.1037269304984056 0  0.8846304212778655 0.1043349840723655 0  0.8581503885465881 0.104741932962923 0  0.8286416220145676 0.1052762843984476 0  0.7982741772533339 0.1053575624517407 0  0.7708789559342691 0.1060290465840416 0  0.741870349714261 0.1078220590984258 0  0.7112469360040695 0.10685702926368 0  0.6783901541417233 0.1079959711853378 0  0.642884733623195 0.1075561996086514 0  0.6056235042367955 0.1085956039602543 0  0.5647007593786924 0.1083187281660325 0  1.1953125 0.01353164693413185 0  1.258148737344733 0.01268350115427042 0  1.320087046516829 0.01426312402966312 0  1.383495130751951 0.01432665475473204 0  1.4453125 0.01315663539200989 0  1.50886768312388 0.01395488397722681 0  0.9942307692307371 0.103330866937657 0  1.119309781943483 0.2802014914557878 0  1.572831235329714 0.01707210522554785 0  1.637611634353954 0.01209340368483431 0  1.709661292005932 0.0146870244871893 0  1.006561890631532 0.07068055446055937 0  1.784793444007901 0.01499371444634687 0  1.855459587353174 0.0
[...]
<PointData  Scalars="pressure"> 
<DataArray  type="Float64"  Name="pressure"  format="ascii">-7.9194953532915154e-06  -3.4729243010531985e-01  -2.2368573276238704e-01  -1.8801888052379173e-01  -9.9234632122025185e-02  0.0000000000000000e+00  0.0000000000000000e+00  3.9789530422530520e-06  -5.9306469481472252e-03  -1.1755050967305393e-02  -1.7482810404042752e-02  -2.3115559218957828e-02  -2.8654930341305652e-02  -3.4102480368837208e-02  -3.9459779130880557e-02  -4.4728401264033421e-02  -4.9909791527934740e-02  -5.5005548416860707e-02  -6.0017151132652539e-02  -6.4945998199990501e-02  -6.9793618468342908e-02  -7.4561411391485005e-02  -7.9250859953712338e-02  -8.3863340938099704e-02  -8.8400345315119672e-02  -9.2863189261059534e-02  -9.7253370875595338e-02  -1.0157217958074108e-01  -1.0582119967108171e-01  -1.1000171080840029e-01  -1.1411480402806719e-01  -1.1816242852822503e-01  -1.2214566134321900e-01  -1.2606608296290481e-01  -1.2992489052846068e-01  -1.3372355288544752e-01  -1.3746379149373961e-01  -1.4114659585407691e-01  -1.4477389390456979e-01  -1.4834630828073783e-01  -1.5186642307819778e-01  -1.5533513741028318e-01  -1.5875398862992138e-01  -1.6212445869852873e-01  -1.6544830513452879e-01  -1.6872690318051953e-01  -1.7196191031353350e-01  -1.7515490593356403e-01  -1.7830771188977440e-01  -1.8142177840167831e-01  -1.8449890617700004e-01  -1.8754057625339174e-01  -1.9054873237844522e-01  -1.9352494547297977e-01  -1.9647133186882643e-01  -1.9938929291218160e-01  -2.0228086420919589e-01  -2.0514782518377844e-01  -2.0799264574840085e-01  -2.1081546477309859e-01  -2.1362137706455941e-01  -2.1640843234834087e-01  -2.1918111209407309e-01  -2.2194098433158665e-01  -2.2468944783971043e-01  -2.2743025522241603e-01  -2.3016489852575062e-01  -2.3289186106107879e-01  -2.3561733592507419e-01  -2.3834343297001928e-01  -2.4107224803814978e-01  -2.4380504922633237e-01  -2.4654084929707612e-01  -2.4928874289212227e-01  -2.5204738050863568e-01  -2.5482022413185534e-01  -2.5760991292278057e-01  -2.6041872557942897e-01  -2.6324933072909545e-01  -2.6610594908029628e-01  -2.6899039163552696e-01  -2.7190507546185289e-01  -2.7485613690165023e-01  -2.7784725601449167e-01  -2.8087997628673811e-01  -2.8396064657515452e-01  -2.8709583205104083e-01  -2.9028782784966384e-01  -2.9354120808462209e-01  -2.9687249431912816e-01  -3.0028054881484184e-01  -3.0377781031065243e-01  -3.0737073365036738e-01  -3.1108744653358589e-01  -3.1491910089489955e-01  -3.1882617973024413e-01  -3.2371752873903775e-01  -3.2362593783538585e-01  -3.4987142264117627e-01  -3.1370515858788267e-01  -3.4602176025982251e-01  -3.4573762821118914e-01  -3.5472337635569579e-01  -3.5752556500971311e-01  -3.9351103355860573e-01  -4.0133767375669022e-01  -4.0039239955969197e-01  -3.8999818257452579e-01  -3.7331488013978026e-01  -3.5219048103755290e-01  -3.2866341309433000e-01  -3.0400809262347378e-01  -2.7948219204403718e-01  -2.5706923578710755e-01  -2.2989974575044331e-01  -2.2014253079274990e-01  -2.0496101084029991e-01  -1.9857754233558123e-01  -1.9426182679015072e-01  -1.9152450708305360e-01  -1.8965170605948661e-01  -1.8835493532685621e-01  -1.8756481522161603e-01  -1.8723518411338810e-01  -1.8733505063289130e-01  -1.8778689702911233e-01  -1.8831024860939499e-01  -1.8879042054689776e-01  -1.8903248303397335e-01  -1.8916794324329547e-01  -1.8932895406069361e-01  -1.8957604904235023e-01  -1.8989849032627978e-01  -1.9029857312526696e-01  -1.9072067564766770e-01  -1.9107839564905410e-01  -1.9129170515259772e-01  -1.9126590023818946e-01  -1.9089182163211380e-01  -1.9007731355592855e-01  -1.8874500197620650e-01  -1.8684897066629602e-01  -1.8434379034407658e-01  -1.8121874547502362e-01  -1.7749171688675128e-01  -1.7313829309494957e-01  -1.6829351861978767e-01  -1.6296118974225929e-01  -1.5722034321228107e-01  -1.5115801305948276e-01  -1.4484131585767573e-01  -1.3835121369218564e-01  -1.3175397651829965e-01  -1.2511632480131338e-01  -1.1850069445743597e-01  -1.1195393410406991e-01  -1.0552065084598931e-01  -9.3011859993904558e-02  -8.6953411413118423e-02  -8.1064891568016717e-02  -7.5393204855885257e-02  -6.9930150054783841e-02  -6.4703000846899505e-02  -5.9724513529010974e-02  -5.4986321414768412e-02  -5.0533244050076920e-02  -4.6339477533939882e-02  -4.2405704669387138e-02  -3.8732819979310162e-02  -3.5320561109058859e-02  -3.2160216761356088e-02  -2.9243237467020875e-02  -2.6558743801855050e-02  -2.4093517188336612e-02  -2.1841080420989711e-02  -1.9792795057094390e-02  -1.7910762911733252e-02  -1.6209946880019671e-02  -1.4659345457757966e-02  -1.3245583926619503e-02  -1.1959393669773359e-02  -1.0782077839465351e-02  -9.7082817735926544e-03  -8.7129617835862774e-03  -7.7975845860419665e-03  -6.9469551913348155e-03  -6.1539616667793066e-03  -5.4151347135435223e-03  -4.7205514241641360e-03  -4.0626989760014437e-03  -3.4376728521399442e-03  -2.8435669983535423e-03  -2.2764992086515309e-03  -1.7345047897060445e-03  -1.2162246938208340e-03  -7.2066609059545021e-04  -2.4772837775343651e-04  2.0251630571266357e-04  6.2967416720984340e-04  1.0331694694367681e-03  1.4113919738992049e-03  1.7633831490393344e-03  2.0874863957665714e-03  2.3838934368523397e-03  2.6492892189199451e-03  2.8809532085893089e-03  3.0832556904107113e-03  3.2457648004120556e-03  3.3761468683292323e-03  3.4689679631967141e-03  3.5191991747717376e-03  3.5390981850374238e-03  3.5112304214628227e-03  3.4464967831872068e-03  3.3415287719429122e-03  3.1934258424992893e-03  3.0022356905117257e-03  2.7745497740005926e-03  2.5019831119379543e-03  2.1996520172646952e-03  1.8475868950166641e-03  1.4322328528961665e-03  1.0107221779146619e-03  5.4492809517985138e-04  0.0000000000000000e+00  0.0000000000000000e+00  0.0000000000000000e+00  0.0000000000000000e+00  0.0000000000000000e+00  0.0000000000000000e+00  0.0000000000000000e+00  0.0000000000000000e+00  0.0000000000000000e+00  6.6902935290784143e-04  1.2625720791943839e-03  1.7963644876826765e-03  2.2837467459558862e-03  2.7320939375897984e-03  3.1375225936260166e-03  3.4966513895390433e-03  3.8077160086634749e-03  4.0683231492106599e-03  4.2763979920726345e-03  4.4277509842831709e-03  4.5199797686241673e-03  4.5489533562979440e-03  4.5109757237509745e-03  4.4031856731027632e-03  4.2166220933323980e-03  3.9522642519788298e-03  3.5977271463246288e-03  3.1516437354595934e-03  2.6063015939600709e-03  1.9545364066929625e-03  1.1906904764939958e-03  3.0753996587504472e-04  -7.0582635233348802e-04  -1.8447896971486516e-03  -3.1299332296720384e-03  -4.5625249083718830e-03  -6.1490952407951549e-03  -7.8985040226641715e-03  -9.8123017296843570e-03  -1.1897568342628763e-02  -1.4160687888323104e-02  -1.6599230037969537e-02  -1.9209718780242239e-02  -2.2026602511224493e-02  -2.5027790507566407e-02  -2.8206069526630292e-02  -3.1583049739624475e-02  -3.5145140368442788e-02  -3.8894288270675835e-02  -4.2836463612345187e-02  -4.6954259008057664e-02  -5.1262528012871109e-02  -5.5747678210861067e-02  -6.0420482340167773e-02  -6.5261191304964397e-02  -7.0286903693522737e-02  -7.5476742700765889e-02  -8.0814443691397786e-02  -8.6310728702597414e-02  -9.1923880608590081e-02  -9.7616534771560001e-02  -1.0337618914525162e-01  -1.0916194165938935e-01  -1.1490234365766216e-01  -1.2055827461622247e-01  -1.2607802730083717e-01  -1.3141374327159847e-01  -1.3653508438057821e-01  -1.4146761279146941e-01  -1.4625871881366867e-01  -1.5092458979187875e-01  -1.5554891945324159e-01  -1.6029251109337211e-01  -1.6522596809280177e-01  -1.7043585398440569e-01  -1.7600282016273619e-01  -1.8195764396321915e-01  -1.8827624026653023e-01  -1.9491926516140429e-01  -2.0164681690509956e-01  -2.0858132545484018e-01  -2.1533398484777591e-01  -2.2172841977926080e-01  -2.2731506389229891e-01  -2.3225516481548542e-01  -2.3593327707460246e-01  -2.3859946021432782e-01  -2.4018450614634404e-01  -2.4018600433413009e-01  -2.3911345141463317e-01  -2.3698522109992098e-01  -2.3407374348566848e-01  -2.3040951698477657e-01  -2.2610719102102564e-01  -2.2129579510663377e-01  -2.1613852192141136e-01  -2.1067684027888828e-01  -2.0495177267129652e-01  -1.9906558576699038e-01  -1.9302801530704736e-01  -1.8689257705657286e-01  -1.8067785709147210e-01  -1.7440159049418136e-01  -1.6808177156353307e-01  -1.6173916799015881e-01  -1.5537580030508566e-01  -1.4900282720747263e-01  -1.4262663369111700e-01  -1.3625432294695677e-01  -1.2988857238778809e-01  -1.2353041250416323e-01  -1.1718480401269686e-01  -1.1085242896960029e-01  -1.0453567184634491e-01  -9.8234698350823324e-02  -9.1950794109295214e-02  -8.5685307821905601e-02  -7.9437656569477794e-02  -7.3209329141311202e-02  -6.6999906663264178e-02  -6.0809882358033550e-02  -5.4639551641242325e-02  -4.8488753484660224e-02  -4.2357772850183932e-02  -3.6246598132578835e-02  -3.0155260658211482e-02  -2.4083766800426145e-02  -1.8032103975797270e-02  -1.2000266717107827e-02  -5.9882443742194117e-03  3.9438833370697240e-06  3.4455620873900840e-06  2.2191806465832950e-06  3.2788863034055077e-07  -1.9671623354547786e-06  -4.2585013198780710e-06  -6.1569318856614563e-06  -7.3738247843752904e-06  -7.8746486132040358e-06  -1.9019493907467327e-01  -2.0655040131461005e-01  -3.8622343911713614e-01  -3.3307055807536329e-01  -3.3196559934939701e-01  -3.1336894872016618e-01  -2.9544239094409025e-01  -2.7952765437033356e-01  -2.6446115648680080e-01  -2.5085241066116842e-01  -2.3971768900480911e-01  -2.2875668272582839e-01  -2.1783218180383127e-01  -2.0665780048344931e-01  -1.9501504410220033e-01  -1.8313340143123535e-01  -1.7034559258679627e-01  -1.9079097760762145e-01  -1.8546609960571725e-01  -1.7090123768883825e-01  -1.4794404125309957e-01  -1.2209593292957774e-01  -9.6132060896165814e-02  -2.3819654529000397e-01  -1.9801986528416080e-01  -7.3118261516328498e-02  -5.3771812898910414e-02  -3.7457192879856917e-02  -1.9102050863261044e-01  -2.5332926675799401e-02  -1.7519668581758255e-02  -1.5715639829902420e-01  -1.1565677727130476e-02  -1.7257629125906387e-01  -1.5243803548887516e-01  -7.3479945189914159e-03  -1.3338553700273437e-01  -1.4275198105352660e-01  -1.0666307897000299e-01  -4.5198713105930651e-03  -1.2866031010719153e-01  -1.8903246536665166e-01  -2.0707460707784955e-03  -7.7861265720970838e-02  -2.1778138517753284e-01  -1.1251987273274357e-01  -6.9761749787771419e-05  -4.9062340002242522e-02  -9.4762582386297756e-02  -3.7242996682553445e-02  1.5512522661616304e-03  -2.6466760761513844e-02  -2.3666592698855360e-01  2.7623510694742997e-03  -7.6906489601168748e-02  -1.7925063323496006e-02  -2.3949269205928603e-01  -2.3184897080789740e-01  -1.0897634986405259e-02  3.3894783683896730e-03  -5.7014070958179272e-02  -4.2211762936771820e-02  -6.2741727369141145e-02  3.4948777140115378e-03  3.2257750270196688e-03  -2.1367376668123034e-01  -5.4085336350335102e-03  -2.2983731704016294e-04  -1.9581677626863211e-01  -3.5064640551238446e-01  -3.9043967136982954e-01  -1.7770963273672352e-01  2.1903621199679171e-03  2.6232596611477990e-03  -1.5305750873862989e-01  4.0020584266616402e-03  -1.2053247391611992e-01  4.4584732975535245e-03  -8.8817727405088281e-02  4.2916782589873317e-03  -7.0206282153035635e-02  -3.3331502822444806e-02  -5.1418904832183254e-02  3.5997034521198889e-03  -5.0448667051210426e-03  4.8691924564947710e-04  -2.5695634289718643e-02  -1.8787006900395811e-01  2.5029721611351083e-03  1.5783617796679898e-03  -1.9581728538501719e-01  -1.8864293412397812e-01  -2.2885500330439310e-01  -1.8474983603201700e-01  -2.2382732605778616e-01  -1.6486809906938768e-01  -1.3974662257293965e-01  -1.0695579905451172e-01  -9.4458061841893592e-02  -1.2271710223431176e-01  -1.4278613937640813e-01  -1.6206484603250507e-01  -6.7370061234149056e-02  -8.6051092481788202e-02  -2.5856517905167489e-03  3.2852751665495041e-03  -1.0323257898111385e-01  3.1240716209663222e-03  -2.1154609700190948e-02  2.2205229994234250e-03  7.9111658437321780e-04  -1.2046064796285473e-01  -1.0233404269211809e-03  -5.0761776379193661e-03  -3.2343904306471861e-03  -1.3549550403623534e-01  -5.9947552138668991e-03  -9.2497041797447842e-03  -8.4380634774088803e-02  -1.4314835975757466e-02  -1.5024501790032047e-01  -2.1116612578384486e-02  -3.1049703211328536e-02  -4.4944109803855263e-02  -1.6390536644151116e-01  -6.2368942519251000e-02  3.9521936347580050e-04  -1.7673926213576824e-01  -1.8909890521050340e-01  -2.0110376008252612e-01  -2.1192608721189862e-01  -2.2354008056274266e-01  -2.3432775250129609e-01  -2.4552227630844523e-01  -2.5911195549423616e-01  -1.9087685062779181e-01  -2.7351644644633022e-01  -2.8898452348137810e-01  -3.0588695811076805e-01  -1.8922720880667404e-01  -3.2576724527583056e-01  -1.6045405904403273e-01  -1.7899592624465618e-01  -1.3627461202712335e-01  -1.0906092909140516e-01  -4.6519228742266400e-03  -2.8258740746320771e-01  5.5596829541345802e-04  -1.4657586124674469e-02  1.4775307913164515e-03  -1.8825803555584467e-01  4.0400587012230828e-04  -4.5194407743661385e-03  -1.8848702003130025e-01  -1.8825608092808971e-01  -1.8831933931684933e-01  -1.8810421443240966e-01  -1.8812147359267678e-01  -1.8798971865379904e-01  -1.8793674759079620e-01  -1.8776446011478939e-01  -1.8760539196960055e-01  -1.8720936985091632e-01  -1.8698646740158581e-01  -1.8616440235305057e-01  -1.8599773911147691e-01  -1.8482482555272339e-01  -1.8483295711151226e-01  -1.8368799240055511e-01  -1.8395922852227223e-01  -1.8324571317237481e-01  -1.8401055947558298e-01  -1.8440766768744887e-01  -1.8523952006787314e-01  -1.8405091846387164e-01  -1.8522442009885748e-01  -1.8650990543473525e-01  -1.8634126618574717e-01  -1.8681372960000894e-01  -1.8702840511857488e-01  -1.8822398126590240e-01  -1.8892602171209219e-01  -1.8997569719884863e-01  -1.9100015327920336e-01  -1.9152174081660550e-01  -1.9277416685153026e-01  -1.9259239126764771e-01  -1.9396711695584473e-01  -1.9260139614541641e-01  -1.9415645160714445e-01  -1.9210463314404982e-01  -1.9321167384436772e-01  -1.9023796872761933e-01  -1.9099941819740285e-01  -1.8637932667587706e-01  -1.8732237064249416e-01  -1.8258670926917872e-01  -1.8252565181949812e-01  -1.7722302976451179e-01  -1.7662324429496945e-01  -1.7106037978831845e-01  -1.6985294070551643e-01  -1.6413847342245630e-01  -1.6235215394906993e-01  -1.8999490158280136e-01  -1.9201482757752356e-01  -1.5677324543914278e-01  -1.5436684506342499e-01  -1.4932017661382757e-01  -1.4619228062687678e-01  -1.4183367157587323e-01  -1.3857153449147019e-01  -1.3442747719129536e-01  -1.3073568150005316e-01  -1.2720135273759531e-01  -1.2305389814603364e-01  -1.8830267680496360e-01  -1.2020112058560567e-01  -1.1558866240166324e-01  -1.1345223385222183e-01  -1.0844336292314777e-01  -1.0701162244762766e-01  -1.0163707342554056e-01  -1.9514554991994887e-01  -1.9865390387251233e-01  -1.8523321574995735e-01  -1.0082499012850332e-01  -9.5116539344708650e-02  -1.8942693655672366e-01  -9.4813805235212517e-02  -8.8913434454782836e-02  -8.9181811225160071e-02  -8.3067163202200950e-02  -8.3768865109010299e-02  -7.7518670927918740e-02  -1.9095930625161919e-01  -7.8870738498558690e-02  -7.2339872173311920e-02  -7.3875796273552632e-02  -6.7420042317252779e-02  -6.9259558019831982e-02  -6.2812276224074967e-02  -1.8609702284644641e-01  -1.8846092431434711e-01  -6.4886085005133556e-02  -5.8531706063831686e-02  -2.0132958361844117e-01  -2.0629598108720940e-01  -1.9776467684064203e-01  -1.7616855197905462e-01  -6.1117439072587307e-02  -5.4407532883849918e-02  -5.7281323269322032e-02  -5.0587548098044201e-02  -5.3637139247269601e-02  -4.7174398093732500e-02  -9.6112423313435127e-02  -5.1805045659012908e-02  -7.6986322775806221e-02  -1.1844966423498902e-01  -5.0165636580460492e-02  -4.3978459347088286e-02  -4.0988399689515564e-02  -3.7967569720386944e-02  -4.0912435944752266e-02  -3.5160176628684009e-02  -3.7966147089868903e-02  -3.2451634079636943e-02  -3.5209218296671278e-02  -2.9962047329111143e-02  -3.2599464855027294e-02  -2.7595165709857743e-02  -3.0082073660121111e-02  -2.5400153934394747e-02  -2.7771923406913868e-02  -2.3306213702382214e-02  -2.5450901300867364e-02  -2.1208745117246294e-02  -2.3271762389512975e-02  -1.9311103617740487e-02  -2.1158597361107107e-02  -1.7535812401954641e-02  -1.9273488802308888e-02  -1.5825611187879823e-02  -1.4250937478950071e-01  -1.5767599367671162e-01  -1.7360529847925018e-02  -1.4231589785011271e-02  -1.5491090411943397e-02  -1.2655330317817081e-02  -1.9207050923306412e-01  -1.3705893623769158e-02  -1.1180760567627804e-02  -1.8086219667242479e-01  -1.9288268163433719e-01  -2.0802733438339902e-01  -2.1480175497144161e-01  -2.1478923093994259e-01  -2.2225204730105227e-01  -2.2479883909508533e-01  -2.3189063913665134e-01  -2.3651766502090188e-01  -2.4252932802201507e-01  -2.5000580386785581e-01  -2.5315961484304911e-01  -2.6343173852653895e-01  -2.6297719140278047e-01  -2.7561415611619100e-01  -2.7192024115759689e-01  -2.8733677869907298e-01  -2.7989889455047973e-01  -2.9175461314935247e-01  -2.8274486597332243e-01  -2.9424035048364833e-01  -2.8624163833161215e-01  -2.9470528555923409e-01  -2.8637354972942969e-01  -2.9317130963994315e-01  -2.8501741902508054e-01  -2.9034028555861036e-01  -2.8266171834871001e-01  -2.8675068183398766e-01  -2.7957852602914723e-01  -2.7850611567239741e-01  -2.7522297454138189e-01  -2.7256769939733161e-01  -2.7601675927592373e-01  -2.6953358442514053e-01  -2.7216317791169520e-01  -2.6617962996835182e-01  -2.6828816210190548e-01  -2.6265558863868232e-01  -2.6347889747804865e-01  -2.6499146919071503e-01  -2.5904115713383308e-01  -2.6002988596452309e-01  -2.5506983216800250e-01  -2.5375707954066767e-01  -2.5017064021257829e-01  -2.5108625647468191e-01  -2.4651220212737651e-01  -2.4694083172075612e-01  -2.4274386187936459e-01  -2.2738764910155651e-01  -2.4282223877734033e-01  -2.3888749191337791e-01  -2.3841751392363192e-01  -2.3478184742702690e-01  -2.3504407849157447e-01  -2.3108750149905813e-01  -2.3117574699629842e-01  -2.2735609232172532e-01  -2.9028092812062978e-01  -2.6930284866315796e-01  -2.5994299634883672e-01  -3.0282757862375237e-01  -2.2726702371985394e-01  -2.2355753769648085e-01  -2.2355187247231018e-01  -2.1981018059579752e-01  -2.1970493925888604e-01  -2.1603674150123847e-01  -2.1578643380618398e-01  -2.1219460486970382e-01  -2.1240824311311848e-01  -2.0863037538593579e-01  -2.0825029248358673e-01  -2.0477263128102563e-01  -2.4878514589153211e-01  -2.0426661280984471e-01  -2.0090526597896755e-01  -3.0193413845388967e-01  -2.4418277888509643e-01  -2.3426060868316420e-01  -2.9404713764049945e-01  -2.0033208021803989e-01  -1.9691507537269939e-01  -1.9773445154974081e-01  -1.9352457360368014e-01  -1.9298312445081997e-01  -1.8945587982015594e-01  -1.9000546553388048e-01  -1.8595001589187130e-01  -1.8537483170173596e-01  -1.8188915547671636e-01  -2.7395725648292935e-01  -1.8129619606358330e-01  -1.7775300630072521e-01  -2.0863475922423794e-01  -2.5041594279784263e-01  -1.3748202436339749e-01  -2.6465941579296659e-01  -1.7836941289603081e-01  -1.7422115118668788e-01  -1.7359838740334979e-01  -1.7007188155435757e-01  -1.2090073193495730e-02  -9.7910032096900374e-03  -1.0539388573967527e-02  -8.4530512431806280e-03  -9.0362530609898583e-03  -7.1788800795680487e-03  -1.6927791974140685e-01  -1.6580282048297204e-01  -1.0615952838655954e-01  -1.6648871844610999e-01  -1.6225002036145841e-01  -1.6168637259009150e-01  -1.5803586113095033e-01  -1.8798272524369189e-01  -2.2257534758881045e-01  -2.3501277848866955e-01  -2.2839339672858786e-02  -7.6150521594586925e-03  -5.9851553889911742e-03  -3.5515836208191633e-02  -1.4310703845775234e-02  -5.4656929802687224e-03  -4.4886963624917462e-03  -4.8616841080358769e-03  -3.5541233265867730e-03  -3.7999782691564370e-03  -2.6690243033559613e-03  -2.8129693362678068e-03  -1.8576738435219203e-03  -1.8930190603640977e-03  -1.0868446143228823e-03  -1.0472230272227613e-03  -3.6528360550486374e-04  -2.6779367877062023e-04  2.9451845765967764e-04  4.4674005175572242e-04  8.9917478573073512e-04  1.0860484170379175e-03  1.4495446940697104e-03  1.6648993907583684e-03  1.9356344047720721e-03  2.