<?xml version="1.0"?>
<VTKFile type="UnstructuredGrid"  version="0.1"  >
<UnstructuredGrid>
<Piece  NumberOfPoints="2945" NumberOfCells="5525">
<Points>
<DataArray  type="Float64"  NumberOfComponents="3"  format="ascii">0 0.1 0  0.95 0.1 0  1 0.1 0  1 0 0  1.5 0 0  3 0 0  3 0.3 0  0 0.3 0  0.0197424558707114 0.1 0  0.03915669042224804 0.1 0  0.05824816022699029 0.1 0  0.07702223050332387 0.1 0  0.09548417327144595 0.1 0  0.1136391897583987 0.1 0  0.1314923700144587 0.1 0  0.1490487330862866 0.1 0  0.1663132263225292 0.1 0  0.1832906857273058 0.1 0  0.1999858946008978 0.1 0  0.216403545770297 0.1 0  0.2325482404045023 0.1 0  0.2484245348165176 0.1 0  0.2640368740372501 0.1 0  0.2793896589642241 0.1 0  0.2944872056237027 0.1 0  0.3093337469555254 0.1 0  0.3239334613687816 0.1 0  0.3382904528528069 0.1 0  0.3524087553122972 0.1 0  0.3662923366391824 0.1 0  0.3799451014768399 0.1 0  0.393370886920506 0.1 0  0.4065734648871676 0.1 0  0.419556546320114 0.1 0  0.4323237821343415 0.1 0  0.4448787573056132 0.1 0  0.4572250047274954 0.1 0  0.4693659926332938 0.1 0  0.4813051343276231 0.1 0  0.4930457849308193 0.1 0  0.5045912455271677 0.1 0  0.5159447600209797 0.1 0  0.5271095174127136 0.1 0  0.5380886618453393 0.1 0  0.5488852725463512 0.1 0  0.5595023868312478 0.1 0  0.5699429904313016 0.1 0  0.5802100167387366 0.1 0  0.5903063508274641 0.1 0  0.6002348329443006 0.1 0  0.6099982499579832 0.1 0  0.6195993483501782 0.1 0  0.6290408246013842 0.1 0  0.6383253354321616 0.1 0  0.6474554910757137 0.1 0  0.6564338522440513 0.1 0  0.6652629482939147 0.1 0  0.6739452579188948 0.1 0  0.6824832240165607 0.1 0  0.6908792415022103 0.1 0  0.6991356755989045 0.1 0  0.7072548438546967 0.1 0  0.7152390281534421 0.1 0  0.7230904746196039 0.1 0  0.7308113906759266 0.1 0  0.7384039435269326 0.1 0  0.7458702676581656 0.1 0  0.7532124631720397 0.1 0  0.7604325921167397 0.1 0  0.7675326856666862 0.1 0  0.7745147374421916 0.1 0  0.7813807123989068 0.1 0  0.7881325374362798 0.1 0  0.7947721131625659 0.1 0  0.8013013031866276 0.1 0  0.8077219449067021 0.1 0  0.8140358419942376 0.1 0  0.8202447685401882 0.1 0  0.8263504700910924 0.1 0  0.8323546643163114 0.1 0  0.8382590362474568 0.1 0  0.8440652473522128 0.1 0  0.8497749272799842 0.1 0  0.8553896837646281 0.1 0  0.8609110933285474 0.1 0  0.866340708855119 0.1 0  0.8716800550492284 0.1 0  0.8769306339052932 0.1 0  0.8820939206038667 0.1 0  0.8871713655604893 0.1 0  0.8921643975475726 0.1 0  0.8970744196575535 0.1 0  0.9019028106970642 0.1 0  0.9066509291259979 0.1 0  0.9113201098984042 0.1 0  0.9159116634553873 0.1 0  0.9204268818729691 0.1 0  0.9248670319440222 0.1 0  0.9292333656649013 0.1 0  0.9335271075812669 0.1 0  0.9377494640511216 0.1 0  0.941901623463222 0.1 0  0.9459847526686701 0.1 0  0.9538461538461205 0.1 0  0.9576923076922409 0.1 0  0.9615384615384381 0.1 0  0.9653846153846337 0.1 0  0.9692307692307542 0.1 0  0.9730769230768747 0.1 0  0.9769230769229952 0.1 0  0.9807692307691157 0.1 0  0.9846153846152361 0.1 0  0.9884615384614317 0.1 0  0.9923076923076356 0.1 0  0.9961538461538395 0.1 0  1 0.09591793123533533 0  1 0.09133596463859224 0  1 0.08619288104391448 0  1 0.08041996484521211 0  1 0.07394008421771697 0  1 0.06666666567302955 0  1 0.05850252932209174 0  1 0.04933859630113544 0  1 0.03905242821848202 0  1 0.02750659386753798 0  1 0.01454683679239736 0  1.015625 0 0  1.03125 0 0  1.046875 0 0  1.0625 0 0  1.078125 0 0  1.09375 0 0  1.109375 0 0  1.125 0 0  1.140625 0 0  1.15625 0 0  1.171875 0 0  1.1875 0 0  1.203125 0 0  1.21875 0 0  1.234375 0 0  1.25 0 0  1.265625 0 0  1.28125 0 0  1.296875 0 0  1.3125 0 0  1.328125 0 0  1.34375 0 0  1.359375 0 0  1.375 0 0  1.390625 0 0  1.40625 0 0  1.421875 0 0  1.4375 0 0  1.453125 0 0  1.46875 0 0  1.484375 0 0  1.515920751924515 0 0  1.531989369316721 0 0  1.54820720925872 0 0  1.564575665560501 0 0  1.581096138674279 0 0  1.597770029901263 0 0  1.614598783332311 0 0  1.631583831055205 0 0  1.64872661129721 0 0  1.666028606716533 0 0  1.683491276608443 0 0  1.701116134125304 0 0  1.718904673324128 0 0  1.736858414799339 0 0  1.754978895814663 0 0  1.773267661782904 0 0  1.791726281103402 0 0  1.810356325314689 0 0  1.8291593848892 0 0  1.848137076690385 0 0  1.867291007717254 0 0  1.886622833871288 0 0  1.90613418642363 0 0  1.925826753299799 0 0  1.945702199101513 0 0  1.96576223584749 0 0  1.986008569283268 0 0  2.006442931928877 0 0  2.02706707547783 0 0  2.047882750887917 0 0  2.06889175187935 0 0  2.090095860038271 0 0  2.111496891648636 0 0  2.133096679109554 0 0  2.154897066851056 0 0  2.176899916687499 0 0  2.199107102752146 0 0  2.22152053937028 0 0  2.244142122958061 0 0  2.266973806444078 0 0  2.290017523268154 0 0  2.313275249499252 0 0  2.336748971745516 0 0  2.360440702338606 0 0  2.384352453384031 0 0  2.408486280477412 0 0  2.432844240041185 0 0  2.457428414757088 0 0  2.482240901796653 0 0  2.507283830121838 0 0  2.532559332080812 0 0  2.558069568787417 0 0  2.583816724966441 0 0  2.60980299606584 0 0  2.636030600971886 0 0  2.662501790984011 0 0  2.689218818279327 0 0  2.716183964547616 0 0  2.743399548861297 0 0  2.77086788244719 0 0  2.798591312896326 0 0  2.826572223178268 0 0  2.854812990138617 0 0  2.883316031690714 0 0  2.912083780657189 0 0  2.941118704633482 0 0  2.970423276998917 0 0  3 0.02999999999994495 0  3 0.05999999999987042 0  3 0.089999999999783 0  3 0.119999999999701 0  3 0.149999999999619 0  3 0.179999999999692 0  3 0.2099999999997737 0  3 0.2399999999998511 0  3 0.2699999999999185 0  2.970138294777171 0.3 0  2.940375666438236 0.3 0  2.910711782853056 0.3 0  2.881146331305122 0.3 0  2.851678975030285 0.3 0  2.822309388626621 0.3 0  2.793037250095074 0.3 0  2.76386223529133 0.3 0  2.734784017903872 0.3 0  2.705802289276642 0.3 0  2.676916713794697 0.3 0  2.648126987654635 0.3 0  2.619432780406184 0.3 0  2.590833779385199 0.3 0  2.562329669847737 0.3 0  2.533920134950189 0.3 0  2.505604855727852 0.3 0  2.477383539822502 0.3 0  2.449255847639465 0.3 0  2.421221492569094 0.3 0  2.393280152486815 0.3 0  2.36543151914496 0.3 0  2.337675285481809 0.3 0  2.310011142385583 0.3 0  2.282438797441587 0.3 0  2.254957931061538 0.3 0  2.227568248063605 0.3 0  2.200269436651085 0.3 0  2.173061204949961 0.3 0  2.145943251515011 0.3 0  2.118915272469994 0.3 0  2.091976978084957 0.3 0  2.065128060700849 0.3 0  2.038368218849433 0.3 0  2.01169717777258 0.3 0  1.985114624111908 0.3 0  1.958620267850966 0.3 0  1.93221382054972 0.3 0  1.905894991850698 0.3 0  1.879663489459713 0.3 0  1.853519019126419 0.3 0  1.827461291053897 0.3 0  1.801490031354372 0.3 0  1.775604937580312 0.3 0  1.74980572560258 0.3 0  1.724092118631866 0.3 0  1.698463829173586 0.3 0  1.672920575782554 0.3 0  1.647462076974085 0.3 0  1.622088043536933 0.3 0  1.5967981978949 0.3 0  1.571592267767068 0.3 0  1.546469970305736 0.3 0  1.521431023814044 0.3 0  1.496475156230927 0.3 0  1.471602093687753 0.3 0  1.446811560490646 0.3 0  1.422103279101731 0.3 0  1.397476971708191 0.3 0  1.37293238939876 0.3 0  1.348469231419202 0.3 0  1.324087248732772 0.3 0  1.299786165921677 0.3 0  1.275565710847046 0.3 0  1.251425617644257 0.3 0  1.227365618676339 0.3 0  1.203385446174014 0.3 0  1.179484853067473 0.3 0  1.155663548773374 0.3 0  1.131921292279077 0.3 0  1.108257802159295 0.3 0  1.084672829009693 0.3 0  1.061166115303374 0.3 0  1.037737392995421 0.3 0  1.01438640299116 0.3 0  0.991112899770314 0.3 0  0.9679166155523955 0.3 0  0.944797284182564 0.3 0  0.921754678526042 0.3 0  0.8987885143602501 0.3 0  0.8758985548820624 0.3 0  0.8530845484099929 0.3 0  0.8303462351786988 0.3 0  0.8076833651172373 0.3 0  0.7850956864865304 0.3 0  0.7625829601354557 0.3 0  0.7401449314598274 0.3 0  0.717781337993959 0.3 0  0.6954919649675473 0.3 0  0.6732765357561226 0.3 0  0.6511348120768439 0.3 0  0.6290665642016573 0.3 0  0.6070715355430467 0.3 0  0.5851494825775325 0.3 0  0.5633001690203812 0.3 0  0.5415233562273221 0.3 0  0.5198187909431873 0.3 0  0.4981862401387795 0.3 0  0.4766254686134248 0.3 0  0.4551362360485234 0.3 0  0.4337182975262159 0.3 0  0.4123714223228037 0.3 0  0.3910953802377493 0.3 0  0.3698899313205595 0.3 0  0.3487548463710963 0.3 0  0.3276898864081783 0.3 0  0.3066948129116018 0.3 0  0.2857694003037476 0.3 0  0.2649134227095047 0.3 0  0.2441266417321288 0.3 0  0.2234088223399122 0.3 0  0.2027597568977288 0.3 0  0.1821792020676698 0.3 0  0.1616669305402443 0.3 0  0.1412227158799362 0.3 0  0.12084633013886 0.3 0  0.1005375673448281 0.3 0  0.08029618164595353 0.3 0  0.06012194778526769 0.3 0  0.04001466495039718 0.3 0  0.01997408913631205 0.3 0  0 0.2800000000000553 0  0 0.2600000000001105 0  0 0.2400000000001658 0  0 0.2200000000002211 0  0 0.2000000000002764 0  0 0.1800000000002244 0  0 0.1600000000001691 0  0 0.140000000000115 0  0 0.1200000000000564 0  1.133778471000506 0.01219539743990768 0  1.003741919047894 0.09354664821474232 0  0.9559421147150347 0.1035858189992458 0  0.9313792160389045 0.1037365237938103 0  0.9788461538460573 0.1033060829993555 0  0.9090102438250753 0.1037269304984056 0  0.8846304212778655 0.1043349840723655 0  0.8581503885465881 0.104741932962923 0  0.8286416220145676 0.1052762843984476 0  0.7982741772533339 0.1053575624517407 0  0.7708789559342691 0.1060290465840416 0  0.741870349714261 0.1078220590984258 0  0.7112469360040695 0.10685702926368 0  0.6783901541417233 0.1079959711853378 0  0.642884733623195 0.1075561996086514 0  0.6056235042367955 0.1085956039602543 0  0.5647007593786924 0.1083187281660325 0  1.1953125 0.01353164693413185 0  1.258148737344733 0.01268350115427042 0  1.320087046516829 0.01426312402966312 0  1.383495130751951 0.01432665475473204 0  1.4453125 0.01315663539200989 0  1.50886768312388 0.01395488397722681 0  0.9942307692307371 0.103330866937657 0  1.119309781943483 0.2802014914557878 0  1.572831235329714 0.01707210522554785 0  1.637611634353954 0.01209340368483431 0  1.709661292005932 0.0146870244871893 0  1.006561890631532 0.07068055446055937 0  1.784793444007901 0.01499371444634687 0  1.855459587353174 0.0
[...]
<PointData  Scalars="pressure"> 
<DataArray  type="Float64"  Name="pressure"  format="ascii">3.1937481857867123e-01  8.5931988664529630e-03  -5.5160992092095004e-02  1.6192130917406535e-02  9.8421541496173645e-02  0.0000000000000000e+00  0.0000000000000000e+00  3.1939690258028913e-01  3.1345210539455370e-01  3.0762763122692288e-01  3.0189969511384890e-01  2.9626665958778303e-01  2.9072687144721282e-01  2.8527878425101072e-01  2.7992080279455289e-01  2.7465136329286166e-01  2.6946900413738295e-01  2.6437209708545473e-01  2.5935919258098905e-01  2.5442886731091718e-01  2.4957958400992072e-01  2.4480995193889246e-01  2.4011847120140933e-01  2.3550377833149536e-01  2.3096437144687329e-01  2.2649895546876872e-01  2.2210603556113898e-01  2.1778434215548714e-01  2.1353231193011951e-01  2.0934874277856949e-01  2.0523248371869154e-01  2.0118169939156139e-01  1.9719533758513055e-01  1.9327196349111925e-01  1.8941043075084016e-01  1.8560907617342431e-01  1.8186699649683605e-01  1.7818241565979834e-01  1.7455453338169383e-01  1.7098185183998166e-01  1.6746278994161631e-01  1.6399628302301839e-01  1.6058121306654274e-01  1.5721613667898543e-01  1.5389963824101702e-01  1.5063077249961043e-01  1.4740800087864175e-01  1.4423034770025786e-01  1.4109626950436469e-01  1.3800465706759812e-01  1.3495445420271066e-01  1.3194433121609780e-01  1.2897291598472685e-01  1.2603939419297186e-01  1.2314223111736100e-01  1.2028048141821293e-01  1.1745304949611458e-01  1.1465794789120567e-01  1.1189607358303544e-01  1.0916330894870598e-01  1.0646140110054847e-01  1.0378821464219500e-01  1.0114250720835677e-01  9.8523134509734364e-02  9.5929637324334752e-02  9.3359003260611362e-02  9.0814749513623172e-02  8.8291777504292845e-02  8.5789620033662653e-02  8.3309309534490825e-02  8.0847444877881577e-02  7.8406850175146398e-02  7.5982819614203043e-02  7.3575925426739908e-02  7.1185651931951310e-02  6.8810937195459818e-02  6.6451293546119075e-02  6.4105114545271222e-02  6.1772576183524795e-02  5.9452537502288551e-02  5.7145647493947509e-02  5.4849592144649725e-02  5.2563262185071437e-02  5.0288007852870895e-02  4.8022231538714093e-02  4.5764370358079932e-02  4.3517100423220968e-02  4.1277471466321429e-02  3.9044467657560492e-02  3.6818126110420783e-02  3.4599750888527715e-02  3.2387911621158942e-02  3.0182649635035735e-02  2.7978029987460153e-02  2.5789752732443494e-02  2.3670723759494632e-02  2.0824834262583924e-02  2.2685378051743494e-02  1.0176587281760102e-03  3.5570453431080208e-02  9.2708952412270517e-03  1.2175994815538421e-02  8.9265761726941787e-03  6.7986669549461639e-03  3.5567925675286634e-03  2.4426078870539523e-03  1.7581461209875439e-03  1.4317867160048392e-03  1.1712183735848934e-03  7.7441229977715594e-04  3.5623029686761236e-05  -1.2010171671820071e-03  -2.9463566702752414e-03  -7.1759490063263336e-03  7.0867351204751512e-04  -3.7114113526876429e-02  -1.3556111820974511e-02  -5.0458938910370168e-03  1.1733035351066039e-03  5.5309871322653213e-03  9.0383134936871667e-03  1.1987396794772251e-02  1.4356631488123130e-02  1.6068282159580807e-02  1.6938432964149402e-02  1.6710331590408536e-02  1.5538342584494960e-02  1.5416271943854361e-02  1.6432079652121935e-02  1.8473906383960823e-02  2.1521083375134361e-02  2.5547591857223585e-02  3.0561603361262200e-02  3.6569310616452314e-02  4.3384283764025020e-02  5.0808962179708171e-02  5.8672293222083276e-02  6.6746245512927946e-02  7.4797602151984929e-02  8.2625586339549917e-02  9.0029975304463994e-02  9.6849644966765305e-02  1.0293905030385665e-01  1.0820232909055295e-01  1.1257396719566759e-01  1.1592092187776858e-01  1.1837037928789429e-01  1.1983473367932614e-01  1.2035847883937829e-01  1.2003009548309992e-01  1.1888792962288552e-01  1.1707375621131220e-01  1.1460126745221655e-01  1.1169500791016412e-01  1.0845962077190795e-01  1.0505690689497921e-01  1.0165293796086297e-01  9.5478240446833756e-02  9.3070879549158575e-02  9.1351266766385289e-02  9.0534935052815083e-02  9.0598723263595804e-02  9.1722126823715833e-02  9.3869194148325646e-02  9.7028332847364868e-02  1.0106640472108387e-01  1.0576374339067529e-01  1.1089894022223215e-01  1.1620840896326243e-01  1.2143355293365532e-01  1.2630431389808633e-01  1.3060707010163733e-01  1.3416091858143411e-01  1.3685173682457680e-01  1.3856096395658848e-01  1.3933913713507692e-01  1.3924443155639965e-01  1.3828799147522364e-01  1.3664773542457151e-01  1.3445732757434747e-01  1.3183779293564679e-01  1.2896863831350808e-01  1.2590837975173377e-01  1.2289684540773445e-01  1.1990783200095340e-01  1.1705610507745938e-01  1.1437612023817391e-01  1.1185985780797320e-01  1.0950562566215719e-01  1.0729682831470760e-01  1.0519647684675001e-01  1.0314994918263450e-01  1.0112580419147341e-01  9.9081201874561042e-02  9.6993172034000028e-02  9.4833202284149473e-02  9.2591006525650790e-02  9.0260474349075595e-02  8.7841822226623456e-02  8.5334310715502307e-02  8.2744762027023688e-02  8.0076966945695396e-02  7.7344168234339580e-02  7.4538150635069203e-02  7.1662311265855344e-02  6.8734660856329011e-02  6.5747761106768429e-02  6.2661599915604188e-02  5.9566546036184442e-02  5.6343667423283311e-02  5.3110621645882310e-02  4.9797822694640399e-02  4.6372206815848770e-02  4.2945786861319599e-02  3.9384669470294655e-02  3.5782761680231416e-02  3.2113933761198726e-02  2.8376756954189626e-02  2.4530229868834848e-02  2.0615358008341678e-02  1.6640993758216049e-02  1.2612825226613368e-02  8.5310322191063676e-03  4.3151560740385406e-03  0.0000000000000000e+00  0.0000000000000000e+00  0.0000000000000000e+00  0.0000000000000000e+00  0.0000000000000000e+00  0.0000000000000000e+00  0.0000000000000000e+00  0.0000000000000000e+00  0.0000000000000000e+00  4.5049181848174930e-03  8.7732133100721713e-03  1.3117961859227119e-02  1.7374931679586886e-02  2.1565560298003911e-02  2.5695053500218723e-02  2.9770263465048640e-02  3.3788026783059685e-02  3.7743824660074546e-02  4.1635135624767484e-02  4.5460680316196121e-02  4.9214752916412835e-02  5.2892312787453821e-02  5.6491245991351455e-02  6.0006727124288284e-02  6.3432122839654062e-02  6.6771116218253532e-02  7.0006607728633388e-02  7.3142695108100689e-02  7.6174318783322634e-02  7.9103095244829918e-02  8.1929308301093129e-02  8.4658756632551929e-02  8.7288625541192530e-02  8.9841608277078544e-02  9.2302268176495519e-02  9.4654146727395777e-02  9.6886112736256011e-02  9.8933745563672279e-02  1.0073752959126017e-01  1.0221127083486270e-01  1.0326280833646620e-01  1.0382017047735632e-01  1.0379202542780504e-01  1.0305806651723382e-01  1.0183742799670688e-01  1.0007943498233988e-01  9.8068701139896172e-02  9.6053484150040169e-02  9.4324632272318548e-02  9.3190044163767194e-02  9.2926322828647656e-02  9.3628508248874531e-02  9.5339046057891286e-02  9.7949813347301240e-02  1.0127365405675605e-01  1.0497978216987947e-01  1.0876151807301186e-01  1.1245090449904892e-01  1.1569958521352934e-01  1.1829984182817331e-01  1.1997366502220225e-01  1.2082920764491044e-01  1.2056351028897175e-01  1.1910356420328487e-01  1.1646918846521991e-01  1.1269327548817051e-01  1.0788475489090946e-01  1.0221409390915090e-01  9.5915363227341635e-02  8.9206660413904210e-02  8.2456557610019576e-02  7.5842237667102130e-02  6.9597657769058130e-02  6.3950660814497268e-02  5.9034238994200107e-02  5.4889393637715368e-02  5.1557585799802644e-02  4.9050851222694723e-02  4.7332824007700995e-02  4.6405126818332303e-02  4.6240260055686856e-02  4.6697479929590058e-02  4.7800853767838575e-02  4.9523591327307416e-02  5.1794422116683565e-02  5.4540340905272176e-02  5.7851556482631669e-02  6.1406293619947684e-02  6.5465603951273751e-02  6.9882046402110917e-02  7.4616946716392615e-02  7.9615319574350613e-02  8.4846907149050688e-02  9.0313685135261043e-02  9.5971903559099112e-02  1.0177875646973521e-01  1.0770881807972313e-01  1.1376422078093533e-01  1.1989353094035950e-01  1.2609807814658472e-01  1.3235260260307269e-01  1.3864743516001957e-01  1.4497585572972985e-01  1.5132796124806644e-01  1.5769272372609075e-01  1.6406554078892929e-01  1.7044317321797134e-01  1.7681953393091887e-01  1.8318993680268048e-01  1.8955185940417682e-01  1.9590536279338347e-01  2.0224612623621363e-01  2.0857352656706415e-01  2.1488570417905042e-01  2.2118222084805861e-01  2.2746229604652629e-01  2.3372417374190393e-01  2.3996883653722192e-01  2.4619442432415226e-01  2.5240159068330986e-01  2.5858969957663602e-01  2.6475837126265728e-01  2.7090785089649350e-01  2.7703774957485516e-01  2.8314806500362799e-01  2.8923874344337203e-01  2.9530975175331781e-01  3.0136108561166697e-01  3.0739273194420064e-01  3.1340467439917175e-01  3.1939684266935742e-01  3.1939594001153387e-01  3.1939367581759609e-01  3.1939015405253091e-01  3.1938586542475011e-01  3.1938158355027346e-01  3.1937804881767301e-01  3.1937580185622555e-01  3.1937489552204323e-01  4.0359231523629135e-02  -1.7794786419011437e-02  3.4437441196944561e-03  1.7499003749140523e-02  -1.9794444846157138e-03  2.6679996390778445e-02  3.7769188982999850e-02  4.9023111062458075e-02  6.0779551782736203e-02  7.2212886761500894e-02  8.2061093251139264e-02  9.2112691649622061e-02  1.0242171831880754e-01  1.1318345647895173e-01  1.2456803446346744e-01  1.3630228155124910e-01  1.4901398960099785e-01  7.0401709041360991e-02  9.9660462887682169e-02  1.1690586335004148e-01  1.1942008030736881e-01  1.1028070904053168e-01  9.6975385611541925e-02  -1.1887406524543551e-02  4.7414289139801925e-02  9.0305352992351248e-02  9.8071335253569494e-02  1.1810601468870298e-01  6.5838183276774242e-03  1.3539368570738528e-01  1.3863943832418937e-01  1.6217340393897117e-01  1.3028419036500674e-01  5.7173719888358426e-02  7.9143690957367646e-02  1.1792194856172149e-01  1.0525883134844394e-01  1.7657386925566187e-01  1.2113847672338043e-01  1.0841693605768832e-01  1.9067385173642742e-01  2.4016682241102465e-02  1.0002931065746741e-01  1.1119858858179350e-01  4.7862873068938876e-02  2.0682740585671375e-01  9.1384239863897918e-02  9.3180937335515857e-02  2.2459760107733887e-01  9.4875814084043567e-02  8.1380082780132479e-02  1.0094614724578395e-01  5.6455147569754754e-02  6.9838474494373401e-02  2.4246340215688486e-01  1.0374862449589690e-01  6.7975493573473239e-02  8.2884087230279097e-02  1.0138743954390973e-01  5.8001479306015014e-02  2.6236280471315304e-01  2.7716822385154744e-01  9.9910001084381736e-02  4.8075159315607130e-02  3.7179298803189716e-02  1.0451050919682259e-01  9.5608429929252184e-02  8.5686695168974064e-02  1.2326474001792749e-01  9.9627651617975720e-03  -2.6963070854771489e-04  1.4165577250759895e-01  7.7516833675670180e-02  2.6594098247124352e-02  1.6639300281172062e-01  6.5019384027857466e-02  1.9890335667867659e-01  5.4635316506731216e-02  2.3059434285196198e-01  4.3521256014521545e-02  2.4919685530544972e-01  2.8606296671793341e-01  2.6797856603459752e-01  3.1736988577318589e-02  3.1434193472557631e-01  3.9749222932858033e-03  2.9368630417230568e-01  1.4554126165378531e-02  1.9801636543835131e-02  1.4303224468165896e-02  -1.3295109384052950e-03  1.7942501570936360e-02  5.1125256928266583e-02  5.0636870902739800e-02  9.3080889337516459e-02  1.5456421959402802e-01  1.7970386011484271e-01  2.1246883727940064e-01  1.1973082885836991e-01  1.1498445314418208e-01  9.3209706903208928e-02  6.6861214132157884e-02  2.5200362709185803e-01  2.3331426300417007e-01  9.0951791498126197e-02  7.1496606449501413e-02  2.1612179297158082e-01  6.4333743632430024e-02  2.9823881156208359e-01  7.5766564923181332e-02  8.6552401433010601e-02  1.9888020967211967e-01  9.5857654875324105e-02  3.1431459588078031e-01  1.0413689130895677e-01  1.8383385906190297e-01  1.1337987331409194e-01  1.2396390747069802e-01  9.2270995275690632e-02  1.3561243619964150e-01  1.6908103133017968e-01  1.3865039936625873e-01  1.2790494414117853e-01  1.0746927075468631e-01  1.5543520961788815e-01  9.2536515743994838e-02  3.3523468704094368e-03  1.4265066668466456e-01  1.3039921009590855e-01  1.1859691495976972e-01  1.0808582219630657e-01  9.7005736938390222e-02  8.6966923229348445e-02  7.6876054818597259e-02  6.5187518164696354e-02  5.4959335102499104e-02  5.3592494300055124e-02  4.2182323875486066e-02  3.1093802089121974e-02  8.5920378911545511e-02  1.9802841868636272e-02  1.1997279115280673e-01  1.1044541325593185e-01  1.1629650798383800e-01  1.0358366717196323e-01  3.1473168986352701e-01  -4.6915082368060657e-03  4.0835997278550569e-03  3.0472496454624609e-01  1.0874167938586641e-02  1.6090455152696810e-02  3.3773140376323696e-03  3.1487332561865705e-01  1.6607009085360155e-02  1.7086550695152702e-02  1.8435610946372166e-02  1.6754271964876596e-02  1.8091524019498411e-02  1.5837787659522960e-02  1.7429068693649807e-02  1.4706764810033487e-02  1.6545995889857848e-02  1.3710022938530715e-02  1.5972694989355798e-02  1.3301049332814929e-02  1.6181740082365354e-02  1.3894526097413437e-02  1.7424576601843149e-02  1.5579827499276907e-02  1.9999424874921772e-02  1.8435238069897528e-02  2.3703654069801908e-02  2.2658075579727783e-02  2.8624962711813199e-02  1.7263627173688210e-02  3.0110030943564313e-02  3.5526443511484977e-02  2.2094167595447356e-02  1.6534122067720092e-02  3.8192153153366319e-02  4.3609994803859721e-02  4.6278102074365640e-02  5.2056591050168355e-02  5.5627674672388119e-02  6.0728099218924476e-02  6.5196283989059065e-02  6.9168284230616703e-02  7.4834359621084673e-02  7.7266361818161100e-02  8.4161377449939428e-02  8.6229170397745580e-02  9.2941470367978216e-02  9.3607252947502481e-02  1.0071816552908736e-01  9.9712152441119389e-02  1.0735168515032358e-01  1.0560870073900236e-01  1.1265920295985057e-01  1.0993931084508987e-01  1.1664450064289017e-01  1.1288888188847854e-01  1.1917022621260108e-01  1.1483434601587916e-01  1.2001234217919259e-01  2.2328330008652742e-02  1.7603569911717666e-02  1.1582122062469358e-01  1.2042424894947552e-01  1.1584459742262623e-01  1.1854509845870090e-01  1.1471428847975514e-01  1.1624860692121045e-01  1.1295334018614619e-01  1.1304660906790297e-01  1.1074690625813891e-01  1.0928796522233840e-01  4.1084716581023514e-02  1.0825561200184600e-01  1.0530882400590186e-01  1.0574781629798104e-01  1.0147797383734025e-01  1.0353562965205011e-01  9.8145057081739179e-02  2.3528561370096790e-02  1.9298435319180358e-02  1.1170328560125698e-02  1.0176522624967416e-01  9.5589430972973316e-02  1.2176304530758438e-02  1.0043343011127261e-01  9.4044100493045679e-02  1.0002060095260538e-01  9.3644579045058532e-02  1.0022804151804228e-01  9.4437260154863062e-02  6.3085224102301288e-02  1.0143146112339091e-01  9.6289774590452834e-02  1.0250688165751191e-01  9.8846852778663633e-02  1.0393614693952435e-01  1.0187306418707041e-01  2.0103588327138204e-02  8.6036637207068015e-02  1.0538258312868477e-01  1.0492641338575831e-01  2.5816672763427435e-02  2.1009763290029165e-02  2.9715469038081966e-02  1.0155738418584501e-01  1.0649830417301288e-01  1.0776661844848084e-01  1.0697009645795987e-01  1.1003913621306137e-01  1.0690122972420747e-01  1.1152304263556538e-01  9.3294404087413366e-02  1.0674962889366515e-01  8.8842949898923010e-02  1.0709958830935727e-01  1.0644775452315786e-01  1.1225078638747790e-01  1.1769097167864408e-01  1.1947393512276895e-01  1.1249911589620840e-01  1.2037812642390086e-01  1.1240758331478704e-01  1.2058411381114087e-01  1.1200585789076245e-01  1.1999737926839046e-01  1.1147340126931572e-01  1.1911937951985935e-01  1.1104654095087255e-01  1.1792935592622067e-01  1.1051433831737324e-01  1.1664676456498255e-01  1.1027563253838160e-01  1.1552856829249881e-01  1.1000936132147934e-01  1.1417156697582054e-01  1.0973562647935178e-01  1.1278567168257944e-01  1.0921611499352148e-01  1.1143056320144636e-01  1.1954638218747790e-01  1.0984737457415289e-01  1.0868629416971611e-01  1.1000703999585121e-01  1.0795721744922761e-01  1.0861003704599909e-01  5.9586734243092979e-02  1.0696039977628755e-01  1.0706076445517515e-01  1.1768727352707355e-01  9.8381260111954749e-02  2.9188902950086536e-02  2.8049265990012295e-02  1.8618945650771851e-02  2.3782264418193633e-02  1.6017888192921808e-02  2.1501496189195380e-02  1.4127718704909900e-02  2.0427833017701732e-02  1.3368171512885713e-02  2.0060128323636954e-02  1.3747051245083622e-02  2.0838852157755008e-02  1.5138918079934064e-02  2.2316780727391232e-02  1.7052852210772657e-02  2.3970213150618362e-02  2.0736929578298799e-02  2.7595097139541912e-02  2.3909943555764663e-02  2.9817938750525567e-02  2.7436481768727400e-02  3.3066774088985153e-02  3.1198969059867680e-02  3.6513935071367895e-02  3.5087965379186188e-02  4.0051093802912371e-02  3.9056808271834623e-02  4.3786958939390427e-02  3.6111899371386473e-02  4.5188952955671831e-02  4.8679254766250422e-02  4.7597463475800864e-02  5.2194170747694356e-02  5.1398302602235504e-02  5.5752990602762904e-02  5.5047885264730680e-02  5.9303793590900239e-02  5.6726358175422868e-02  5.8299251770505413e-02  6.2845771344114759e-02  6.2751221808922605e-02  6.6649392333248278e-02  6.7020542064368582e-02  7.0614801674725947e-02  7.0439753538557401e-02  7.4227798621227525e-02  7.4341148414124536e-02  7.7896971427697498e-02  9.0847784939276331e-03  7.8224824280824237e-02  8.1644112072935190e-02  8.1638998083295486e-02  8.5267768673141148e-02  8.5381668659864338e-02  8.8929373332484227e-02  8.9136091846030691e-02  9.2608347708344710e-02  1.0678986973951669e-02  2.8084352520650890e-02  7.2055333773082481e-03  1.8455153304322042e-02  9.2963332260745601e-02  9.6350574718478285e-02  9.6123600595327111e-02  9.9855257788127177e-02  1.0013727143388590e-01  1.0360709589214816e-01  1.0398814108454056e-01  1.0741819786987368e-01  1.0708223018480879e-01  1.1086384640250489e-01  1.1132934228004386e-01  1.1471144928384809e-01  7.1068618300793251e-02  1.1527718412966730e-01  1.1856248507589416e-01  2.5949296594872901e-02  2.6748498953899927e-02  8.5310913717100548e-02  3.4594643921179523e-02  1.1917642572328623e-01  1.2253195202082828e-01  1.2168191442113228e-01  1.2588293171104156e-01  1.2644343322482535e-01  1.2994078824202085e-01  1.2938175894011308e-01  1.3343399742351333e-01  1.3400876094396794e-01  1.3748740566342810e-01  5.0977928661065770e-02  1.3807385785365617e-01  1.4161402901712944e-01  1.1075301646873582e-01  7.1491402903759285e-02  1.1176060153024901e-01  5.9247534720885869e-02  1.4101176621824060e-01  1.4515300680490562e-01  1.4575809996356742e-01  1.4929347302463924e-01  1.0568503086783577e-01  1.0547275341920427e-01  1.0421993101790787e-01  1.0373256161045287e-01  1.0253978720393991e-01  1.0189393856894881e-01  1.5006814928739776e-01  1.5355300033742481e-01  1.0783257311009775e-01  1.5289159012818310e-01  1.5712115423773632e-01  1.5766084824569324e-01  1.6132607266617605e-01  1.3363532675046861e-02  3.1409990288683250e-02  8.5715604300218504e-02  1.2601636530745730e-01  1.0067753846945549e-01  9.9944128961577963e-02  1.2421039125236417e-01  1.1477454551265102e-01  1.0122860702385497e-01  9.9238817133889337e-02  9.7900681738364234e-02  9.7145000619165894e-02  9.5763400391047873e-02  9.4947372743840575e-02  9.3536346941158768e-02  9.2676727230282099e-02  9.1233591926087779e-02  9.0289123493766277e-02  8.8841853302064497e-02  8.7771705358692581e-02  8.6368509290844678e-02  8.5190505061727345e-02  8.3815767877121361e-02  8.2533033542160530e-02  8.1215406624588926e-02  7.9804971671517677e-02  7.8505166558857462e-02  7.6986452984219134e-02  7.5675906756499434e-02  7.4097778852844673e-02  7.2780798548428269e-02  7.1114404147560747e-02  1.6188068252425142e-01  1.6556200807989785e-01  1.6526853399845881e-01  1.6937016253362111e-01  1.6987152923384363e-01  1.7362808385361597e-01  6.9816276584239362e-02  6.8075113122008757e-02  6.6727018287369808e-02  6.4942023548758249e-02  6.3402642841200493e-02  6.1709544380626771e-02  1.0687464802581192e-01  1.7280038059703839e-01  1.7745173239105580e-01  1.7814699334970316e-01  1.8198763854429537e-01  1.0077387551380911e-01  1.0446918321130221e-01  1.8144428573472862e-01  1.8591854335188904e-01  1.8632839103779217e-01  1.9033863521188499e-01  1.9074505017986026e-01  1.9476526668977134e-01