<?xml version="1.0"?>
<VTKFile type="UnstructuredGrid"  version="0.1"  >
<UnstructuredGrid>
<Piece  NumberOfPoints="2945" NumberOfCells="5525">
<Points>
<DataArray  type="Float64"  NumberOfComponents="3"  format="ascii">0 0.1 0  0.95 0.1 0  1 0.1 0  1 0 0  1.5 0 0  3 0 0  3 0.3 0  0 0.3 0  0.0197424558707114 0.1 0  0.03915669042224804 0.1 0  0.05824816022699029 0.1 0  0.07702223050332387 0.1 0  0.09548417327144595 0.1 0  0.1136391897583987 0.1 0  0.1314923700144587 0.1 0  0.1490487330862866 0.1 0  0.1663132263225292 0.1 0  0.1832906857273058 0.1 0  0.1999858946008978 0.1 0  0.216403545770297 0.1 0  0.2325482404045023 0.1 0  0.2484245348165176 0.1 0  0.2640368740372501 0.1 0  0.2793896589642241 0.1 0  0.2944872056237027 0.1 0  0.3093337469555254 0.1 0  0.3239334613687816 0.1 0  0.3382904528528069 0.1 0  0.3524087553122972 0.1 0  0.3662923366391824 0.1 0  0.3799451014768399 0.1 0  0.393370886920506 0.1 0  0.4065734648871676 0.1 0  0.419556546320114 0.1 0  0.4323237821343415 0.1 0  0.4448787573056132 0.1 0  0.4572250047274954 0.1 0  0.4693659926332938 0.1 0  0.4813051343276231 0.1 0  0.4930457849308193 0.1 0  0.5045912455271677 0.1 0  0.5159447600209797 0.1 0  0.5271095174127136 0.1 0  0.5380886618453393 0.1 0  0.5488852725463512 0.1 0  0.5595023868312478 0.1 0  0.5699429904313016 0.1 0  0.5802100167387366 0.1 0  0.5903063508274641 0.1 0  0.6002348329443006 0.1 0  0.6099982499579832 0.1 0  0.6195993483501782 0.1 0  0.6290408246013842 0.1 0  0.6383253354321616 0.1 0  0.6474554910757137 0.1 0  0.6564338522440513 0.1 0  0.6652629482939147 0.1 0  0.6739452579188948 0.1 0  0.6824832240165607 0.1 0  0.6908792415022103 0.1 0  0.6991356755989045 0.1 0  0.7072548438546967 0.1 0  0.7152390281534421 0.1 0  0.7230904746196039 0.1 0  0.7308113906759266 0.1 0  0.7384039435269326 0.1 0  0.7458702676581656 0.1 0  0.7532124631720397 0.1 0  0.7604325921167397 0.1 0  0.7675326856666862 0.1 0  0.7745147374421916 0.1 0  0.7813807123989068 0.1 0  0.7881325374362798 0.1 0  0.7947721131625659 0.1 0  0.8013013031866276 0.1 0  0.8077219449067021 0.1 0  0.8140358419942376 0.1 0  0.8202447685401882 0.1 0  0.8263504700910924 0.1 0  0.8323546643163114 0.1 0  0.8382590362474568 0.1 0  0.8440652473522128 0.1 0  0.8497749272799842 0.1 0  0.8553896837646281 0.1 0  0.8609110933285474 0.1 0  0.866340708855119 0.1 0  0.8716800550492284 0.1 0  0.8769306339052932 0.1 0  0.8820939206038667 0.1 0  0.8871713655604893 0.1 0  0.8921643975475726 0.1 0  0.8970744196575535 0.1 0  0.9019028106970642 0.1 0  0.9066509291259979 0.1 0  0.9113201098984042 0.1 0  0.9159116634553873 0.1 0  0.9204268818729691 0.1 0  0.9248670319440222 0.1 0  0.9292333656649013 0.1 0  0.9335271075812669 0.1 0  0.9377494640511216 0.1 0  0.941901623463222 0.1 0  0.9459847526686701 0.1 0  0.9538461538461205 0.1 0  0.9576923076922409 0.1 0  0.9615384615384381 0.1 0  0.9653846153846337 0.1 0  0.9692307692307542 0.1 0  0.9730769230768747 0.1 0  0.9769230769229952 0.1 0  0.9807692307691157 0.1 0  0.9846153846152361 0.1 0  0.9884615384614317 0.1 0  0.9923076923076356 0.1 0  0.9961538461538395 0.1 0  1 0.09591793123533533 0  1 0.09133596463859224 0  1 0.08619288104391448 0  1 0.08041996484521211 0  1 0.07394008421771697 0  1 0.06666666567302955 0  1 0.05850252932209174 0  1 0.04933859630113544 0  1 0.03905242821848202 0  1 0.02750659386753798 0  1 0.01454683679239736 0  1.015625 0 0  1.03125 0 0  1.046875 0 0  1.0625 0 0  1.078125 0 0  1.09375 0 0  1.109375 0 0  1.125 0 0  1.140625 0 0  1.15625 0 0  1.171875 0 0  1.1875 0 0  1.203125 0 0  1.21875 0 0  1.234375 0 0  1.25 0 0  1.265625 0 0  1.28125 0 0  1.296875 0 0  1.3125 0 0  1.328125 0 0  1.34375 0 0  1.359375 0 0  1.375 0 0  1.390625 0 0  1.40625 0 0  1.421875 0 0  1.4375 0 0  1.453125 0 0  1.46875 0 0  1.484375 0 0  1.515920751924515 0 0  1.531989369316721 0 0  1.54820720925872 0 0  1.564575665560501 0 0  1.581096138674279 0 0  1.597770029901263 0 0  1.614598783332311 0 0  1.631583831055205 0 0  1.64872661129721 0 0  1.666028606716533 0 0  1.683491276608443 0 0  1.701116134125304 0 0  1.718904673324128 0 0  1.736858414799339 0 0  1.754978895814663 0 0  1.773267661782904 0 0  1.791726281103402 0 0  1.810356325314689 0 0  1.8291593848892 0 0  1.848137076690385 0 0  1.867291007717254 0 0  1.886622833871288 0 0  1.90613418642363 0 0  1.925826753299799 0 0  1.945702199101513 0 0  1.96576223584749 0 0  1.986008569283268 0 0  2.006442931928877 0 0  2.02706707547783 0 0  2.047882750887917 0 0  2.06889175187935 0 0  2.090095860038271 0 0  2.111496891648636 0 0  2.133096679109554 0 0  2.154897066851056 0 0  2.176899916687499 0 0  2.199107102752146 0 0  2.22152053937028 0 0  2.244142122958061 0 0  2.266973806444078 0 0  2.290017523268154 0 0  2.313275249499252 0 0  2.336748971745516 0 0  2.360440702338606 0 0  2.384352453384031 0 0  2.408486280477412 0 0  2.432844240041185 0 0  2.457428414757088 0 0  2.482240901796653 0 0  2.507283830121838 0 0  2.532559332080812 0 0  2.558069568787417 0 0  2.583816724966441 0 0  2.60980299606584 0 0  2.636030600971886 0 0  2.662501790984011 0 0  2.689218818279327 0 0  2.716183964547616 0 0  2.743399548861297 0 0  2.77086788244719 0 0  2.798591312896326 0 0  2.826572223178268 0 0  2.854812990138617 0 0  2.883316031690714 0 0  2.912083780657189 0 0  2.941118704633482 0 0  2.970423276998917 0 0  3 0.02999999999994495 0  3 0.05999999999987042 0  3 0.089999999999783 0  3 0.119999999999701 0  3 0.149999999999619 0  3 0.179999999999692 0  3 0.2099999999997737 0  3 0.2399999999998511 0  3 0.2699999999999185 0  2.970138294777171 0.3 0  2.940375666438236 0.3 0  2.910711782853056 0.3 0  2.881146331305122 0.3 0  2.851678975030285 0.3 0  2.822309388626621 0.3 0  2.793037250095074 0.3 0  2.76386223529133 0.3 0  2.734784017903872 0.3 0  2.705802289276642 0.3 0  2.676916713794697 0.3 0  2.648126987654635 0.3 0  2.619432780406184 0.3 0  2.590833779385199 0.3 0  2.562329669847737 0.3 0  2.533920134950189 0.3 0  2.505604855727852 0.3 0  2.477383539822502 0.3 0  2.449255847639465 0.3 0  2.421221492569094 0.3 0  2.393280152486815 0.3 0  2.36543151914496 0.3 0  2.337675285481809 0.3 0  2.310011142385583 0.3 0  2.282438797441587 0.3 0  2.254957931061538 0.3 0  2.227568248063605 0.3 0  2.200269436651085 0.3 0  2.173061204949961 0.3 0  2.145943251515011 0.3 0  2.118915272469994 0.3 0  2.091976978084957 0.3 0  2.065128060700849 0.3 0  2.038368218849433 0.3 0  2.01169717777258 0.3 0  1.985114624111908 0.3 0  1.958620267850966 0.3 0  1.93221382054972 0.3 0  1.905894991850698 0.3 0  1.879663489459713 0.3 0  1.853519019126419 0.3 0  1.827461291053897 0.3 0  1.801490031354372 0.3 0  1.775604937580312 0.3 0  1.74980572560258 0.3 0  1.724092118631866 0.3 0  1.698463829173586 0.3 0  1.672920575782554 0.3 0  1.647462076974085 0.3 0  1.622088043536933 0.3 0  1.5967981978949 0.3 0  1.571592267767068 0.3 0  1.546469970305736 0.3 0  1.521431023814044 0.3 0  1.496475156230927 0.3 0  1.471602093687753 0.3 0  1.446811560490646 0.3 0  1.422103279101731 0.3 0  1.397476971708191 0.3 0  1.37293238939876 0.3 0  1.348469231419202 0.3 0  1.324087248732772 0.3 0  1.299786165921677 0.3 0  1.275565710847046 0.3 0  1.251425617644257 0.3 0  1.227365618676339 0.3 0  1.203385446174014 0.3 0  1.179484853067473 0.3 0  1.155663548773374 0.3 0  1.131921292279077 0.3 0  1.108257802159295 0.3 0  1.084672829009693 0.3 0  1.061166115303374 0.3 0  1.037737392995421 0.3 0  1.01438640299116 0.3 0  0.991112899770314 0.3 0  0.9679166155523955 0.3 0  0.944797284182564 0.3 0  0.921754678526042 0.3 0  0.8987885143602501 0.3 0  0.8758985548820624 0.3 0  0.8530845484099929 0.3 0  0.8303462351786988 0.3 0  0.8076833651172373 0.3 0  0.7850956864865304 0.3 0  0.7625829601354557 0.3 0  0.7401449314598274 0.3 0  0.717781337993959 0.3 0  0.6954919649675473 0.3 0  0.6732765357561226 0.3 0  0.6511348120768439 0.3 0  0.6290665642016573 0.3 0  0.6070715355430467 0.3 0  0.5851494825775325 0.3 0  0.5633001690203812 0.3 0  0.5415233562273221 0.3 0  0.5198187909431873 0.3 0  0.4981862401387795 0.3 0  0.4766254686134248 0.3 0  0.4551362360485234 0.3 0  0.4337182975262159 0.3 0  0.4123714223228037 0.3 0  0.3910953802377493 0.3 0  0.3698899313205595 0.3 0  0.3487548463710963 0.3 0  0.3276898864081783 0.3 0  0.3066948129116018 0.3 0  0.2857694003037476 0.3 0  0.2649134227095047 0.3 0  0.2441266417321288 0.3 0  0.2234088223399122 0.3 0  0.2027597568977288 0.3 0  0.1821792020676698 0.3 0  0.1616669305402443 0.3 0  0.1412227158799362 0.3 0  0.12084633013886 0.3 0  0.1005375673448281 0.3 0  0.08029618164595353 0.3 0  0.06012194778526769 0.3 0  0.04001466495039718 0.3 0  0.01997408913631205 0.3 0  0 0.2800000000000553 0  0 0.2600000000001105 0  0 0.2400000000001658 0  0 0.2200000000002211 0  0 0.2000000000002764 0  0 0.1800000000002244 0  0 0.1600000000001691 0  0 0.140000000000115 0  0 0.1200000000000564 0  1.133778471000506 0.01219539743990768 0  1.003741919047894 0.09354664821474232 0  0.9559421147150347 0.1035858189992458 0  0.9313792160389045 0.1037365237938103 0  0.9788461538460573 0.1033060829993555 0  0.9090102438250753 0.1037269304984056 0  0.8846304212778655 0.1043349840723655 0  0.8581503885465881 0.104741932962923 0  0.8286416220145676 0.1052762843984476 0  0.7982741772533339 0.1053575624517407 0  0.7708789559342691 0.1060290465840416 0  0.741870349714261 0.1078220590984258 0  0.7112469360040695 0.10685702926368 0  0.6783901541417233 0.1079959711853378 0  0.642884733623195 0.1075561996086514 0  0.6056235042367955 0.1085956039602543 0  0.5647007593786924 0.1083187281660325 0  1.1953125 0.01353164693413185 0  1.258148737344733 0.01268350115427042 0  1.320087046516829 0.01426312402966312 0  1.383495130751951 0.01432665475473204 0  1.4453125 0.01315663539200989 0  1.50886768312388 0.01395488397722681 0  0.9942307692307371 0.103330866937657 0  1.119309781943483 0.2802014914557878 0  1.572831235329714 0.01707210522554785 0  1.637611634353954 0.01209340368483431 0  1.709661292005932 0.0146870244871893 0  1.006561890631532 0.07068055446055937 0  1.784793444007901 0.01499371444634687 0  1.855459587353174 0.0
[...]
<PointData  Scalars="pressure"> 
<DataArray  type="Float64"  Name="pressure"  format="ascii">-3.5380523722385822e-02  -3.5469860129212816e-01  -3.5382140444502819e-01  -3.0715976794329503e-01  -1.6045234307074011e-01  0.0000000000000000e+00  0.0000000000000000e+00  -3.5372162374212167e-02  -4.1303252679777892e-02  -4.7127607129925086e-02  -5.2855249706542547e-02  -5.8487802329868062e-02  -6.4026876130043583e-02  -6.9474026875121275e-02  -7.4830807977504507e-02  -8.0098756565032889e-02  -8.5279342196118088e-02  -9.0374094566202476e-02  -9.5384465876423810e-02  -1.0031186671208663e-01  -1.0515775379210823e-01  -1.0992351113584518e-01  -1.1461055288470641e-01  -1.1922022819730177e-01  -1.2375393658968153e-01  -1.2821297142246937e-01  -1.3259871460961092e-01  -1.3691242827382294e-01  -1.4115551803194115e-01  -1.4532921357108980e-01  -1.4943466100150499e-01  -1.5347341315257160e-01  -1.5744658100335990e-01  -1.6135551043437549e-01  -1.6520135586907161e-01  -1.6898542778631509e-01  -1.7270905284503740e-01  -1.7637334801512364e-01  -1.7997970440796962e-01  -1.8352903091845924e-01  -1.8702307857695066e-01  -1.9046281793382788e-01  -1.9384949856239495e-01  -1.9718436216243149e-01  -2.0046877523430176e-01  -2.0370388604179829e-01  -2.0689101082819994e-01  -2.1003139852068872e-01  -2.1312643190257943e-01  -2.1617729156183407e-01  -2.1918533714048269e-01  -2.2215175634244691e-01  -2.2507797317969372e-01  -2.2796522530070401e-01  -2.3081501295173554e-01  -2.3362847622930946e-01  -2.3640707928788041e-01  -2.3915213129528634e-01  -2.4186538969090449e-01  -2.4454716819949657e-01  -2.4720071160278320e-01  -2.4982525149314250e-01  -2.5242357578888519e-01  -2.5499685672654221e-01  -2.5754624634157697e-01  -2.6007401017632337e-01  -2.6258160312779044e-01  -2.6506812011170611e-01  -2.6753740828935163e-01  -2.6999112415946519e-01  -2.7243050476562797e-01  -2.7485685599593429e-01  -2.7726943617507444e-01  -2.7967392075548458e-01  -2.8206974153491715e-01  -2.8445911668821511e-01  -2.8684376753067570e-01  -2.8922504070053556e-01  -2.9160477902313636e-01  -2.9398551005998580e-01  -2.9636859941582860e-01  -2.9875521399587573e-01  -3.0114888775056703e-01  -3.0355212363461587e-01  -3.0596547893606846e-01  -3.0839240149830693e-01  -3.1083716611180495e-01  -3.1330030673891862e-01  -3.1578387054922874e-01  -3.1829708602535267e-01  -3.2083900274977140e-01  -3.2341583773800597e-01  -3.2602928736798331e-01  -3.2869661912243875e-01  -3.3140511517918786e-01  -3.3411069227883139e-01  -3.3759439480134873e-01  -3.3663885282699668e-01  -3.5847503743815251e-01  -3.2636258381336314e-01  -3.5273432471158755e-01  -3.5126903637182583e-01  -3.5640721344222198e-01  -3.5992018943157122e-01  -3.7460988944075957e-01  -3.8044052034136633e-01  -3.8356381390290234e-01  -3.8346293540926524e-01  -3.8087914674614021e-01  -3.7627226807189224e-01  -3.7019170583826472e-01  -3.6305721227723048e-01  -3.5524844633237057e-01  -3.4829767252815730e-01  -3.3388476696000841e-01  -3.3965753467824938e-01  -3.2444096518133159e-01  -3.1852033689840059e-01  -3.1444177488877784e-01  -3.1172867102235619e-01  -3.0969279412363565e-01  -3.0810318958378680e-01  -3.0697082657572000e-01  -3.0633251943294665e-01  -3.0624367876057007e-01  -3.0675907785852580e-01  -3.0767428150330417e-01  -3.0817882599997221e-01  -3.0811360095882157e-01  -3.0756558110061066e-01  -3.0658628473118882e-01  -3.0517892996910806e-01  -3.0329880320029196e-01  -3.0092521524653981e-01  -2.9809179720305656e-01  -2.9481753094093055e-01  -2.9111424451439954e-01  -2.8701270922768418e-01  -2.8253728684117158e-01  -2.7770720849469077e-01  -2.7255130886306894e-01  -2.6709860563476323e-01  -2.6137690673858405e-01  -2.5540353945748928e-01  -2.4920857810011160e-01  -2.4281973840460239e-01  -2.3624768196815071e-01  -2.2954931552081170e-01  -2.2271791089852958e-01  -2.1580426648140447e-01  -2.0881403523565356e-01  -2.0180927952618175e-01  -1.9477838418729751e-01  -1.8777011943481206e-01  -1.8080906782831385e-01  -1.7391958696715398e-01  -1.6712683751863303e-01  -1.5379605617422470e-01  -1.4725873700036410e-01  -1.4084429095001408e-01  -1.3460496339486683e-01  -1.2851863748673067e-01  -1.2264154853275819e-01  -1.1696621924865212e-01  -1.1152277291364207e-01  -1.0632691545748781e-01  -1.0136878041062515e-01  -9.6657141394198245e-02  -9.2197123256255661e-02  -8.7986618603446268e-02  -8.4022765050605894e-02  -8.0295786186515783e-02  -7.6797846049246749e-02  -7.3516167866367707e-02  -7.0457629715470108e-02  -6.7576129480131183e-02  -6.4887717437296322e-02  -6.2361525541639637e-02  -5.9984778895384172e-02  -5.7748564843435962e-02  -5.5632750242625310e-02  -5.3628009117886871e-02  -5.1703611505428335e-02  -4.9883275185170203e-02  -4.8122321436989503e-02  -4.6425369189553173e-02  -4.4785708891265610e-02  -4.3184996205668805e-02  -4.1620345472981234e-02  -4.0089030381872046e-02  -3.8588820152174443e-02  -3.7106511641105691e-02  -3.5646193308195691e-02  -3.4200599507094948e-02  -3.2774229090373572e-02  -3.1360208038103209e-02  -2.9960586601705062e-02  -2.8575583033052965e-02  -2.7206270958982495e-02  -2.5850806111621945e-02  -2.4511637308083568e-02  -2.3188672812547245e-02  -2.1889209963040425e-02  -2.0605927996150766e-02  -1.9339205325147511e-02  -1.8103893173258799e-02  -1.6898478168549978e-02  -1.5683355643399868e-02  -1.4546677138582048e-02  -1.3380086541228317e-02  -1.2290698699591679e-02  -1.1223216127682551e-02  -1.0145894133041004e-02  -9.1593304123326058e-03  -8.1491136913853981e-03  -7.1972847726331571e-03  -6.2803044105566724e-03  -5.4012472434211761e-03  -4.5193662162160099e-03  -3.6789380251296797e-03  -2.8710230240480959e-03  -2.1158692620245633e-03  -1.3974943417385786e-03  -6.5747799877496384e-04  0.0000000000000000e+00  0.0000000000000000e+00  0.0000000000000000e+00  0.0000000000000000e+00  0.0000000000000000e+00  0.0000000000000000e+00  0.0000000000000000e+00  0.0000000000000000e+00  0.0000000000000000e+00  -5.5182847124893503e-04  -1.1269461431436388e-03  -1.8208050147009030e-03  -2.5311256791764763e-03  -3.2723120539407458e-03  -4.0522265962890120e-03  -4.8770456045829661e-03  -5.7481940194080879e-03  -6.6660063785263599e-03  -7.6330052527374881e-03  -8.6540473060262909e-03  -9.7309390092506724e-03  -1.0867150367245957e-02  -1.2067331130542779e-02  -1.3334182200853585e-02  -1.4678047728028002e-02  -1.6096950330978792e-02  -1.7602570844579727e-02  -1.9196707437151586e-02  -2.0887954784252264e-02  -2.2683656842371374e-02  -2.4589404110106561e-02  -2.6611398265273641e-02  -2.8755462271867465e-02  -3.1038140581617992e-02  -3.3456486217135102e-02  -3.6018969133190068e-02  -3.8736121571658601e-02  -4.1606937225734268e-02  -4.4639277097422311e-02  -4.7843132792459303e-02  -5.1219870091687297e-02  -5.4794588017773711e-02  -5.8502820523834279e-02  -6.2433502785705954e-02  -6.6542702331464615e-02  -7.0830828994464246e-02  -7.5305491403651240e-02  -7.9951569512372964e-02  -8.4813077929307118e-02  -8.9817364478483860e-02  -9.5020903787323405e-02  -1.0040320442334497e-01  -1.0595510155409098e-01  -1.1168907373427765e-01  -1.1758813104730836e-01  -1.2365838730037422e-01  -1.2988414976603435e-01  -1.3627771304262493e-01  -1.4283609333435210e-01  -1.4953093381146168e-01  -1.5632697484218988e-01  -1.6330155614937669e-01  -1.7036489122220566e-01  -1.7751546914144906e-01  -1.8474721830330121e-01  -1.9204026661925472e-01  -1.9935359472613984e-01  -2.0665664729031691e-01  -2.1393366911397033e-01  -2.2116600900702538e-01  -2.2822739818835511e-01  -2.3514758933576452e-01  -2.4188528116019870e-01  -2.4838846376801790e-01  -2.5456458543602772e-01  -2.6043889831198158e-01  -2.6597018074080764e-01  -2.7111868470036665e-01  -2.7588031014825104e-01  -2.8010397059980036e-01  -2.8399371196833217e-01  -2.8734964923056416e-01  -2.9007684465452060e-01  -2.9190506578377129e-01  -2.9305369230364386e-01  -2.9315791354655341e-01  -2.9241003051499842e-01  -2.9084821635184255e-01  -2.8817449615819224e-01  -2.8478387817563577e-01  -2.8071618429603251e-01  -2.7615722767756146e-01  -2.7114391180696196e-01  -2.6575842086043105e-01  -2.6008528977545098e-01  -2.5422125154741504e-01  -2.4819383053841107e-01  -2.4202952407459682e-01  -2.3578530767305203e-01  -2.2946844964578816e-01  -2.2310805102283460e-01  -2.1671497049854985e-01  -2.1029902687796806e-01  -2.0387010788346716e-01  -1.9743881375596353e-01  -1.9100698570053132e-01  -1.8458005139679853e-01  -1.7816158722940770e-01  -1.7175514495386493e-01  -1.6536223998503843e-01  -1.5898335690071033e-01  -1.5262103596619692e-01  -1.4627566659710198e-01  -1.3994838715640723e-01  -1.3363935328483187e-01  -1.2734912200096690e-01  -1.2107844747872670e-01  -1.1482692754734128e-01  -1.0859537466033917e-01  -1.0238350025276238e-01  -9.6191555358153782e-02  -9.0019674618913262e-02  -8.3867728292898555e-02  -7.7735847427664720e-02  -7.1623995894830372e-02  -6.5532163089697698e-02  -5.9460320721654476e-02  -5.3408431642566770e-02  -4.7376466316061669e-02  -4.1364388319324603e-02  -3.5372185890183580e-02  -3.5372530781560163e-02  -3.5373389551619526e-02  -3.5374721278221034e-02  -3.5376341095744127e-02  -3.5377958303139966e-02  -3.5379294972148166e-02  -3.5380147145624236e-02  -3.5380493579256760e-02  -2.9907838438365592e-01  -3.2723054726939216e-01  -3.7064398278632954e-01  -3.4320464958697794e-01  -3.6881101230230257e-01  -3.3021878299517526e-01  -3.1715164623788328e-01  -3.0483922278871772e-01  -2.9257471721199996e-01  -2.8100213769126131e-01  -2.7119478054464224e-01  -2.6126801895446788e-01  -2.5114434542313541e-01  -2.4058033277224508e-01  -2.2939867384025436e-01  -2.1784501314892732e-01  -2.0529539919204770e-01  -2.8464450281874165e-01  -2.6411433821974867e-01  -2.3974319114664994e-01  -2.1222124586952623e-01  -1.8457119559500573e-01  -1.5710747992156249e-01  -3.4133056863692707e-01  -2.7755665292112497e-01  -1.3202172716088659e-01  -1.1004272324988187e-01  -9.0538924020191952e-02  -3.1137398152123563e-01  -7.5067957062732574e-02  -6.4177953048911343e-02  -1.9226469311697456e-01  -5.4822146813560707e-02  -2.5686736330767718e-01  -2.3092928016080561e-01  -4.7113281725793620e-02  -2.0235671321751891e-01  -1.7796817242795698e-01  -1.6735982581538569e-01  -4.1033837572331019e-02  -1.6394024548865774e-01  -3.0538858954149761e-01  -3.4988245268886053e-02  -1.3277778947968427e-01  -2.8813481329236057e-01  -1.4784235061254564e-01  -2.9315801330889703e-02  -9.7664735872336483e-02  -1.3011026811884910e-01  -8.2662209390903088e-02  -2.3887400972234785e-02  -6.8459386010815637e-02  -2.9271558904462514e-01  -1.8614656242013635e-02  -1.1226730900651018e-01  -5.6640958327270632e-02  -2.8648411631688564e-01  -2.7317705814123916e-01  -4.6260593406463456e-02  -1.4018009206802051e-02  -9.2382093781270810e-02  -7.7582433141336060e-02  -1.1453488141716742e-01  -1.0719462642908243e-02  -7.6033088946130117e-03  -2.5151634695085895e-01  -3.7394970414715518e-02  -2.7638784114216022e-02  -2.3238933457820021e-01  -3.5421362350143115e-01  -3.8056723025386952e-01  -2.1368332153590469e-01  -2.1866662512304107e-02  -5.0180773549192174e-03  -1.8866976040486108e-01  -1.5469547971872791e-02  -1.5597743199815936e-01  -1.1543699998166443e-02  -1.2421346270979804e-01  -8.2143561290432768e-03  -1.0559116399718479e-01  -6.8708659447439271e-02  -8.6798437708552847e-02  -5.3686489317745180e-03  -4.0418892855523608e-02  -6.2488427110195949e-04  -6.1067734942230008e-02  -3.0730682526306685e-01  -3.0116639805262049e-03  -2.4776117731999591e-03  -3.1621775491768095e-01  -3.0729755425833843e-01  -2.9208002582014797e-01  -2.6807947006566263e-01  -2.6309385512883177e-01  -2.0061225647943043e-01  -1.7526566574340222e-01  -1.4237253272694966e-01  -1.5260614637832032e-01  -1.8770398498666990e-01  -2.1624330971538364e-01  -2.4447724116776276e-01  -1.0273501507431017e-01  -1.2140627025079356e-01  -3.2338945548205204e-02  -1.8492711943711663e-02  -1.3857025194573264e-01  -1.6383752014505825e-02  -5.6531048256420961e-02  -2.1210912317970832e-02  -2.6568425956216050e-02  -1.5576529691928367e-01  -3.2121491155790015e-02  -4.0451548459339230e-02  -3.7965276046279549e-02  -1.7074844734491126e-01  -4.4314563478513154e-02  -5.0744626843714148e-02  -1.4442333466884197e-01  -5.9309289309350956e-02  -1.8541200075322997e-01  -6.9317975269826443e-02  -8.2508489028539536e-02  -9.9625805739035705e-02  -1.9894142216857391e-01  -1.1992929779106415e-01  -5.4540941576507380e-04  -2.1158244869297582e-01  -2.2366155704672358e-01  -2.3526622806354403e-01  -2.4558443167192226e-01  -2.5646259002444249e-01  -2.6635024035728094e-01  -2.7634573449207461e-01  -2.8808335837164373e-01  -2.9256726982841291e-01  -3.0001895081068564e-01  -3.1222768151538755e-01  -3.2486686581962060e-01  -2.7506523837507169e-01  -3.3886046539654197e-01  -2.2653460988224833e-01  -2.5177888007525240e-01  -1.9957090933759736e-01  -1.7084344569568913e-01  -4.0024855102063807e-02  -3.5491368940013029e-01  -5.6993022064518860e-04  -5.0030082297467082e-02  -1.5205586704605284e-03  -3.0744957728364425e-01  -5.4007886646488101e-04  -3.9895516930812003e-02  -3.0755018487387603e-01  -3.0726334139593792e-01  -3.0695143753492610e-01  -3.0741863200671066e-01  -3.0711802132652521e-01  -3.0796515616697562e-01  -3.0756941861088027e-01  -3.0870900721054878e-01  -3.0821576367407266e-01  -3.0944930507163526e-01  -3.0876584144969144e-01  -3.0990405928542480e-01  -3.0897507216632952e-01  -3.0988480883270836e-01  -3.0874196622057998e-01  -3.0943996152005082e-01  -3.0801139080949913e-01  -3.0860196438325327e-01  -3.0686893955704664e-01  -3.0716140374208384e-01  -3.0493169258136504e-01  -3.0896268832580698e-01  -3.0455802443740870e-01  -3.0216345538837180e-01  -3.0704245086259746e-01  -3.0907971441286969e-01  -3.0141669913287583e-01  -2.9860113584641451e-01  -2.9809070211834610e-01  -2.9461035025111704e-01  -2.9395047543574854e-01  -2.9016130169047355e-01  -2.8929343123906398e-01  -2.8543616840007030e-01  -2.8414517309725557e-01  -2.7965050605284802e-01  -2.7828672054672837e-01  -2.7356452172298690e-01  -2.7200291040193836e-01  -2.6731038350536301e-01  -2.6537667829051781e-01  -2.5982034851686869e-01  -2.5822062056401968e-01  -2.5326168402945182e-01  -2.5091319480544333e-01  -2.4592722527709240e-01  -2.4326866040671533e-01  -2.3849632050059644e-01  -2.3541179882590429e-01  -2.3070846275499790e-01  -2.2734651666807595e-01  -3.0639909583276626e-01  -3.0844156070204759e-01  -2.2272217290341056e-01  -2.1882377122778404e-01  -2.1477472751166021e-01  -2.1053029265726231e-01  -2.0692549581582839e-01  -2.0268155567180132e-01  -1.9908452116941597e-01  -1.9457295983314554e-01  -1.9133341022350292e-01  -1.8651016265894080e-01  -2.9838013882710296e-01  -1.8372389764603675e-01  -1.7854451675954761e-01  -1.7627845638939396e-01  -1.7078555209823676e-01  -1.6907440293740036e-01  -1.6327064625749388e-01  -3.0533948978038722e-01  -3.0769908807846225e-01  -3.1069041302811001e-01  -1.6206395683271249e-01  -1.5596163829936316e-01  -3.1052195488359730e-01  -1.5519184652592427e-01  -1.4891419363727768e-01  -1.4867359944258587e-01  -1.4218866144458958e-01  -1.4236084895517168e-01  -1.3573022780321342e-01  -2.8625778085536469e-01  -1.3655113868893670e-01  -1.2962785871879803e-01  -1.3064208238578146e-01  -1.2377495156602036e-01  -1.2510747760416235e-01  -1.1822888655774892e-01  -3.0763556957824950e-01  -2.6846433883655579e-01  -1.1981298665122063e-01  -1.1300922514141670e-01  -3.0397017524986419e-01  -3.0739624388789616e-01  -3.0122303145221407e-01  -2.4769217926833373e-01  -1.1512135088445205e-01  -1.0792658110292239e-01  -1.1035812431120340e-01  -1.0315134195134801e-01  -1.0578459415480126e-01  -9.8807228105215084e-02  -1.5731452143127420e-01  -1.0577379867821740e-01  -1.3570944905323340e-01  -1.8136936868039144e-01  -1.0138773996063603e-01  -9.4681775393704024e-02  -9.2107861456061813e-02  -8.8158429101418481e-02  -9.0686181549810313e-02  -8.4429084030635884e-02  -8.6810509907071204e-02  -8.0777783686353272e-02  -8.3118713508664205e-02  -7.7332184857619016e-02  -7.9571337761035241e-02  -7.4019121012535299e-02  -7.6112559533804761e-02  -7.0877838203159016e-02  -7.2861346999530757e-02  -6.7835137412514762e-02  -6.9588522909750039e-02  -6.4783158218228429e-02  -6.6455172404642396e-02  -6.1924879084752880e-02  -6.3381205696061968e-02  -5.9188940606504280e-02  -6.0534634307829134e-02  -5.6510598042125548e-02  -2.0613783631399221e-01  -2.2558661883272452e-01  -5.7650775134891592e-02  -5.3948123932261623e-02  -5.4802882530885326e-02  -5.1390360607599800e-02  -2.9231477788858812e-01  -5.2023038984880837e-02  -4.8929662385778845e-02  -2.4783429331994081e-01  -2.6954122573512435e-01  -3.0230360012828078e-01  -3.0430369394634177e-01  -3.1004077449075823e-01  -3.0853910108819660e-01  -3.1349991655169052e-01  -3.1210057968197485e-01  -3.1729411710266064e-01  -3.1537292438302872e-01  -3.2119937984840585e-01  -3.1834679038887720e-01  -3.2459549067825794e-01  -3.2049160675027616e-01  -3.2711129057250149e-01  -3.2196386978297770e-01  -3.2911673947908215e-01  -3.2299215129210795e-01  -3.2795614657057681e-01  -3.2141439212546530e-01  -3.2648985249838974e-01  -3.2071857681881760e-01  -3.2417679827577406e-01  -3.1847886072654452e-01  -3.2113005181227311e-01  -3.1567685286927721e-01  -3.1763640985334557e-01  -3.1253582692931087e-01  -3.1387400870973609e-01  -3.0904848670947599e-01  -3.1491079517406456e-01  -3.0752408066302800e-01  -3.0429222733433420e-01  -3.0537424311190392e-01  -3.0093048859294075e-01  -3.0164200531960916e-01  -2.9745863366233333e-01  -2.9802990578285188e-01  -2.9395373103576555e-01  -2.9670232980002570e-01  -2.9476882742518351e-01  -2.9043500066331929e-01  -2.9034508581213309e-01  -2.8665109620737261e-01  -2.8658022924751425e-01  -2.8299340431839615e-01  -2.8287297086040264e-01  -2.7937767221393883e-01  -2.7899897314657890e-01  -2.7571493084611892e-01  -3.1770849329410450e-01  -2.7514563812361864e-01  -2.7196894775742270e-01  -2.7232444227457286e-01  -2.6866710864798787e-01  -2.6822735108368423e-01  -2.6498106354458217e-01  -2.6447759204572885e-01  -2.6128719507227116e-01  -3.3387268120955876e-01  -3.1796488146796092e-01  -3.2732008471032248e-01  -3.3231767148375502e-01  -2.6062599029714822e-01  -2.5753051308388081e-01  -2.5809053619999967e-01  -2.5432179868310861e-01  -2.5374368305478784e-01  -2.5053961181399381e-01  -2.4990156447642145e-01  -2.4671100421996039e-01  -2.4734717698216557e-01  -2.4350904858695446e-01  -2.4278289453648524e-01  -2.3962107912294001e-01  -2.8293261300260297e-01  -2.3882963520708170e-01  -2.3574233323958110e-01  -3.2689642952202824e-01  -3.1228726915218596e-01  -2.6904122875667386e-01  -3.1869808372159153e-01  -2.3493464554173263e-01  -2.3175904768595768e-01  -2.3282880874148321e-01  -2.2859581615797328e-01  -2.2783455636398259e-01  -2.2450475476585699e-01  -2.2528239756239074e-01  -2.2117624665120700e-01  -2.2041265105219859e-01  -2.1708026907414993e-01  -3.0205797285467684e-01  -2.1633344641776064e-01  -2.1292240734884091e-01  -2.4393113836537625e-01  -2.8166732105126630e-01  -2.0320239574972720e-01  -2.9376252951979581e-01  -2.1369550231324325e-01  -2.0950753612908210e-01  -2.0875495466750477e-01  -2.0533033799482028e-01  -4.9418142479451130e-02  -4.6555309216417415e-02  -4.6883234347416120e-02  -4.4219246507357750e-02  -4.4379650007319485e-02  -4.1940475358615607e-02  -2.0442998097451637e-01  -2.0104265020448456e-01  -1.6781102115063801e-01  -2.0183492069472977e-01  -1.9756726568050773e-01  -1.9691633891789997e-01  -1.9333301797423660e-01  -3.0901364842089324e-01  -3.0383465556458789e-01  -2.6765790832102349e-01  -6.8712183157271359e-02  -4.1949850276652698e-02  -3.9744637411887683e-02  -8.6134494151233199e-02  -5.5419050908938068e-02  -3.9650269283116463e-02  -3.7679702216752722e-02  -3.7616501426293837e-02  -3.5742376479271025e-02  -3.5545178757010083e-02  -3.3846021325976666e-02  -3.3543190182681155e-02  -3.2032886617080820e-02  -3.1604161428891255e-02  -3.0243035242970562e-02  -2.9732030865546651e-02  -2.8482082156984275e-02  -2.7918793523850165e-02  -2.6785756820863562e-02  -2.6163366602481322e-02  -2.5139686283138729e-02  -2.448979261527732