<?xml version="1.0"?>
<VTKFile type="UnstructuredGrid"  version="0.1"  >
<UnstructuredGrid>
<Piece  NumberOfPoints="2945" NumberOfCells="5525">
<Points>
<DataArray  type="Float64"  NumberOfComponents="3"  format="ascii">0 0.1 0  0.95 0.1 0  1 0.1 0  1 0 0  1.5 0 0  3 0 0  3 0.3 0  0 0.3 0  0.0197424558707114 0.1 0  0.03915669042224804 0.1 0  0.05824816022699029 0.1 0  0.07702223050332387 0.1 0  0.09548417327144595 0.1 0  0.1136391897583987 0.1 0  0.1314923700144587 0.1 0  0.1490487330862866 0.1 0  0.1663132263225292 0.1 0  0.1832906857273058 0.1 0  0.1999858946008978 0.1 0  0.216403545770297 0.1 0  0.2325482404045023 0.1 0  0.2484245348165176 0.1 0  0.2640368740372501 0.1 0  0.2793896589642241 0.1 0  0.2944872056237027 0.1 0  0.3093337469555254 0.1 0  0.3239334613687816 0.1 0  0.3382904528528069 0.1 0  0.3524087553122972 0.1 0  0.3662923366391824 0.1 0  0.3799451014768399 0.1 0  0.393370886920506 0.1 0  0.4065734648871676 0.1 0  0.419556546320114 0.1 0  0.4323237821343415 0.1 0  0.4448787573056132 0.1 0  0.4572250047274954 0.1 0  0.4693659926332938 0.1 0  0.4813051343276231 0.1 0  0.4930457849308193 0.1 0  0.5045912455271677 0.1 0  0.5159447600209797 0.1 0  0.5271095174127136 0.1 0  0.5380886618453393 0.1 0  0.5488852725463512 0.1 0  0.5595023868312478 0.1 0  0.5699429904313016 0.1 0  0.5802100167387366 0.1 0  0.5903063508274641 0.1 0  0.6002348329443006 0.1 0  0.6099982499579832 0.1 0  0.6195993483501782 0.1 0  0.6290408246013842 0.1 0  0.6383253354321616 0.1 0  0.6474554910757137 0.1 0  0.6564338522440513 0.1 0  0.6652629482939147 0.1 0  0.6739452579188948 0.1 0  0.6824832240165607 0.1 0  0.6908792415022103 0.1 0  0.6991356755989045 0.1 0  0.7072548438546967 0.1 0  0.7152390281534421 0.1 0  0.7230904746196039 0.1 0  0.7308113906759266 0.1 0  0.7384039435269326 0.1 0  0.7458702676581656 0.1 0  0.7532124631720397 0.1 0  0.7604325921167397 0.1 0  0.7675326856666862 0.1 0  0.7745147374421916 0.1 0  0.7813807123989068 0.1 0  0.7881325374362798 0.1 0  0.7947721131625659 0.1 0  0.8013013031866276 0.1 0  0.8077219449067021 0.1 0  0.8140358419942376 0.1 0  0.8202447685401882 0.1 0  0.8263504700910924 0.1 0  0.8323546643163114 0.1 0  0.8382590362474568 0.1 0  0.8440652473522128 0.1 0  0.8497749272799842 0.1 0  0.8553896837646281 0.1 0  0.8609110933285474 0.1 0  0.866340708855119 0.1 0  0.8716800550492284 0.1 0  0.8769306339052932 0.1 0  0.8820939206038667 0.1 0  0.8871713655604893 0.1 0  0.8921643975475726 0.1 0  0.8970744196575535 0.1 0  0.9019028106970642 0.1 0  0.9066509291259979 0.1 0  0.9113201098984042 0.1 0  0.9159116634553873 0.1 0  0.9204268818729691 0.1 0  0.9248670319440222 0.1 0  0.9292333656649013 0.1 0  0.9335271075812669 0.1 0  0.9377494640511216 0.1 0  0.941901623463222 0.1 0  0.9459847526686701 0.1 0  0.9538461538461205 0.1 0  0.9576923076922409 0.1 0  0.9615384615384381 0.1 0  0.9653846153846337 0.1 0  0.9692307692307542 0.1 0  0.9730769230768747 0.1 0  0.9769230769229952 0.1 0  0.9807692307691157 0.1 0  0.9846153846152361 0.1 0  0.9884615384614317 0.1 0  0.9923076923076356 0.1 0  0.9961538461538395 0.1 0  1 0.09591793123533533 0  1 0.09133596463859224 0  1 0.08619288104391448 0  1 0.08041996484521211 0  1 0.07394008421771697 0  1 0.06666666567302955 0  1 0.05850252932209174 0  1 0.04933859630113544 0  1 0.03905242821848202 0  1 0.02750659386753798 0  1 0.01454683679239736 0  1.015625 0 0  1.03125 0 0  1.046875 0 0  1.0625 0 0  1.078125 0 0  1.09375 0 0  1.109375 0 0  1.125 0 0  1.140625 0 0  1.15625 0 0  1.171875 0 0  1.1875 0 0  1.203125 0 0  1.21875 0 0  1.234375 0 0  1.25 0 0  1.265625 0 0  1.28125 0 0  1.296875 0 0  1.3125 0 0  1.328125 0 0  1.34375 0 0  1.359375 0 0  1.375 0 0  1.390625 0 0  1.40625 0 0  1.421875 0 0  1.4375 0 0  1.453125 0 0  1.46875 0 0  1.484375 0 0  1.515920751924515 0 0  1.531989369316721 0 0  1.54820720925872 0 0  1.564575665560501 0 0  1.581096138674279 0 0  1.597770029901263 0 0  1.614598783332311 0 0  1.631583831055205 0 0  1.64872661129721 0 0  1.666028606716533 0 0  1.683491276608443 0 0  1.701116134125304 0 0  1.718904673324128 0 0  1.736858414799339 0 0  1.754978895814663 0 0  1.773267661782904 0 0  1.791726281103402 0 0  1.810356325314689 0 0  1.8291593848892 0 0  1.848137076690385 0 0  1.867291007717254 0 0  1.886622833871288 0 0  1.90613418642363 0 0  1.925826753299799 0 0  1.945702199101513 0 0  1.96576223584749 0 0  1.986008569283268 0 0  2.006442931928877 0 0  2.02706707547783 0 0  2.047882750887917 0 0  2.06889175187935 0 0  2.090095860038271 0 0  2.111496891648636 0 0  2.133096679109554 0 0  2.154897066851056 0 0  2.176899916687499 0 0  2.199107102752146 0 0  2.22152053937028 0 0  2.244142122958061 0 0  2.266973806444078 0 0  2.290017523268154 0 0  2.313275249499252 0 0  2.336748971745516 0 0  2.360440702338606 0 0  2.384352453384031 0 0  2.408486280477412 0 0  2.432844240041185 0 0  2.457428414757088 0 0  2.482240901796653 0 0  2.507283830121838 0 0  2.532559332080812 0 0  2.558069568787417 0 0  2.583816724966441 0 0  2.60980299606584 0 0  2.636030600971886 0 0  2.662501790984011 0 0  2.689218818279327 0 0  2.716183964547616 0 0  2.743399548861297 0 0  2.77086788244719 0 0  2.798591312896326 0 0  2.826572223178268 0 0  2.854812990138617 0 0  2.883316031690714 0 0  2.912083780657189 0 0  2.941118704633482 0 0  2.970423276998917 0 0  3 0.02999999999994495 0  3 0.05999999999987042 0  3 0.089999999999783 0  3 0.119999999999701 0  3 0.149999999999619 0  3 0.179999999999692 0  3 0.2099999999997737 0  3 0.2399999999998511 0  3 0.2699999999999185 0  2.970138294777171 0.3 0  2.940375666438236 0.3 0  2.910711782853056 0.3 0  2.881146331305122 0.3 0  2.851678975030285 0.3 0  2.822309388626621 0.3 0  2.793037250095074 0.3 0  2.76386223529133 0.3 0  2.734784017903872 0.3 0  2.705802289276642 0.3 0  2.676916713794697 0.3 0  2.648126987654635 0.3 0  2.619432780406184 0.3 0  2.590833779385199 0.3 0  2.562329669847737 0.3 0  2.533920134950189 0.3 0  2.505604855727852 0.3 0  2.477383539822502 0.3 0  2.449255847639465 0.3 0  2.421221492569094 0.3 0  2.393280152486815 0.3 0  2.36543151914496 0.3 0  2.337675285481809 0.3 0  2.310011142385583 0.3 0  2.282438797441587 0.3 0  2.254957931061538 0.3 0  2.227568248063605 0.3 0  2.200269436651085 0.3 0  2.173061204949961 0.3 0  2.145943251515011 0.3 0  2.118915272469994 0.3 0  2.091976978084957 0.3 0  2.065128060700849 0.3 0  2.038368218849433 0.3 0  2.01169717777258 0.3 0  1.985114624111908 0.3 0  1.958620267850966 0.3 0  1.93221382054972 0.3 0  1.905894991850698 0.3 0  1.879663489459713 0.3 0  1.853519019126419 0.3 0  1.827461291053897 0.3 0  1.801490031354372 0.3 0  1.775604937580312 0.3 0  1.74980572560258 0.3 0  1.724092118631866 0.3 0  1.698463829173586 0.3 0  1.672920575782554 0.3 0  1.647462076974085 0.3 0  1.622088043536933 0.3 0  1.5967981978949 0.3 0  1.571592267767068 0.3 0  1.546469970305736 0.3 0  1.521431023814044 0.3 0  1.496475156230927 0.3 0  1.471602093687753 0.3 0  1.446811560490646 0.3 0  1.422103279101731 0.3 0  1.397476971708191 0.3 0  1.37293238939876 0.3 0  1.348469231419202 0.3 0  1.324087248732772 0.3 0  1.299786165921677 0.3 0  1.275565710847046 0.3 0  1.251425617644257 0.3 0  1.227365618676339 0.3 0  1.203385446174014 0.3 0  1.179484853067473 0.3 0  1.155663548773374 0.3 0  1.131921292279077 0.3 0  1.108257802159295 0.3 0  1.084672829009693 0.3 0  1.061166115303374 0.3 0  1.037737392995421 0.3 0  1.01438640299116 0.3 0  0.991112899770314 0.3 0  0.9679166155523955 0.3 0  0.944797284182564 0.3 0  0.921754678526042 0.3 0  0.8987885143602501 0.3 0  0.8758985548820624 0.3 0  0.8530845484099929 0.3 0  0.8303462351786988 0.3 0  0.8076833651172373 0.3 0  0.7850956864865304 0.3 0  0.7625829601354557 0.3 0  0.7401449314598274 0.3 0  0.717781337993959 0.3 0  0.6954919649675473 0.3 0  0.6732765357561226 0.3 0  0.6511348120768439 0.3 0  0.6290665642016573 0.3 0  0.6070715355430467 0.3 0  0.5851494825775325 0.3 0  0.5633001690203812 0.3 0  0.5415233562273221 0.3 0  0.5198187909431873 0.3 0  0.4981862401387795 0.3 0  0.4766254686134248 0.3 0  0.4551362360485234 0.3 0  0.4337182975262159 0.3 0  0.4123714223228037 0.3 0  0.3910953802377493 0.3 0  0.3698899313205595 0.3 0  0.3487548463710963 0.3 0  0.3276898864081783 0.3 0  0.3066948129116018 0.3 0  0.2857694003037476 0.3 0  0.2649134227095047 0.3 0  0.2441266417321288 0.3 0  0.2234088223399122 0.3 0  0.2027597568977288 0.3 0  0.1821792020676698 0.3 0  0.1616669305402443 0.3 0  0.1412227158799362 0.3 0  0.12084633013886 0.3 0  0.1005375673448281 0.3 0  0.08029618164595353 0.3 0  0.06012194778526769 0.3 0  0.04001466495039718 0.3 0  0.01997408913631205 0.3 0  0 0.2800000000000553 0  0 0.2600000000001105 0  0 0.2400000000001658 0  0 0.2200000000002211 0  0 0.2000000000002764 0  0 0.1800000000002244 0  0 0.1600000000001691 0  0 0.140000000000115 0  0 0.1200000000000564 0  1.133778471000506 0.01219539743990768 0  1.003741919047894 0.09354664821474232 0  0.9559421147150347 0.1035858189992458 0  0.9313792160389045 0.1037365237938103 0  0.9788461538460573 0.1033060829993555 0  0.9090102438250753 0.1037269304984056 0  0.8846304212778655 0.1043349840723655 0  0.8581503885465881 0.104741932962923 0  0.8286416220145676 0.1052762843984476 0  0.7982741772533339 0.1053575624517407 0  0.7708789559342691 0.1060290465840416 0  0.741870349714261 0.1078220590984258 0  0.7112469360040695 0.10685702926368 0  0.6783901541417233 0.1079959711853378 0  0.642884733623195 0.1075561996086514 0  0.6056235042367955 0.1085956039602543 0  0.5647007593786924 0.1083187281660325 0  1.1953125 0.01353164693413185 0  1.258148737344733 0.01268350115427042 0  1.320087046516829 0.01426312402966312 0  1.383495130751951 0.01432665475473204 0  1.4453125 0.01315663539200989 0  1.50886768312388 0.01395488397722681 0  0.9942307692307371 0.103330866937657 0  1.119309781943483 0.2802014914557878 0  1.572831235329714 0.01707210522554785 0  1.637611634353954 0.01209340368483431 0  1.709661292005932 0.0146870244871893 0  1.006561890631532 0.07068055446055937 0  1.784793444007901 0.01499371444634687 0  1.855459587353174 0.0
[...]
<PointData  Scalars="pressure"> 
<DataArray  type="Float64"  Name="pressure"  format="ascii">1.0835530631699541e+00  8.3609553873765818e-01  7.7506895830652955e-01  6.9714630031234881e-01  6.0360080859752996e-01  0.0000000000000000e+00  0.0000000000000000e+00  1.0835564267227775e+00  1.0776303310245661e+00  1.0718060373781755e+00  1.0660785394346193e+00  1.0604462291196495e+00  1.0549075222450353e+00  1.0494608640190541e+00  1.0441047229045026e+00  1.0388376020544197e+00  1.0336580063537379e+00  1.0285644837696781e+00  1.0235556072133558e+00  1.0186299534476158e+00  1.0137861426234571e+00  1.0090228030991923e+00  1.0043385940729774e+00  9.9973219089146781e-01  9.9520229010800620e-01  9.9074761675506184e-01  9.8636690762191281e-01  9.8205892509813630e-01  9.7782244129677587e-01  9.7365627425338397e-01  9.6955921987114135e-01  9.6553011198019290e-01  9.6156780503552719e-01  9.5767117200415242e-01  9.5383911108715025e-01  9.5007043883503750e-01  9.4636419573115527e-01  9.4271919108860214e-01  9.3913448313101278e-01  9.3560894264464511e-01  9.3214152113960036e-01  9.2873125109925603e-01  9.2537717631124272e-01  9.2207824186688436e-01  9.1883346029457569e-01  9.1564191687107654e-01  9.1250259249310284e-01  9.0941466389310122e-01  9.0637712237117851e-01  9.0338907236539334e-01  9.0044979660504920e-01  8.9755827997062532e-01  8.9471359568254683e-01  8.9191518609206577e-01  8.8916203979958319e-01  8.8645351026006014e-01  8.8378899366949659e-01  8.8116704256440948e-01  8.7858869198299672e-01  8.7605042617635021e-01  8.7355488260374248e-01  8.7110002225757222e-01  8.6868520206095379e-01  8.6630994457193922e-01  8.6397458963918594e-01  8.6167700819491821e-01  8.5942210031461563e-01  8.5720389473032821e-01  8.5502164192237662e-01  8.5288109867645723e-01  8.5077879847823179e-01  8.4871912564357299e-01  8.4669453539515938e-01  8.4471038168904056e-01  8.4276736198435998e-01  8.4086738928444793e-01  8.3901017553190016e-01  8.3719477409939647e-01  8.3542469592073576e-01  8.3370231350177360e-01  8.3203318264889181e-01  8.3041211782993207e-01  8.2884208682552885e-01  8.2733437728286796e-01  8.2588332949126841e-01  8.2449643644359527e-01  8.2318854152907051e-01  8.2195513717703905e-01  8.2079681608297139e-01  8.1972942794336512e-01  8.1876863630948604e-01  8.1791567826617573e-01  8.1718420301833694e-01  8.1660336177255555e-01  8.1617522713626300e-01  8.1593517703053409e-01  8.1589205100865803e-01  8.1614049246080778e-01  8.1671471292845599e-01  8.1767405450861752e-01  8.1914441964839180e-01  8.2150603000585920e-01  8.2366760957591512e-01  8.3838022431086956e-01  8.4323912891206398e-01  8.5084479433002325e-01  8.5833041986666958e-01  8.6474765762259154e-01  8.6918800538995755e-01  8.7100854198785060e-01  8.6974063104243238e-01  8.6493973283340375e-01  8.5659921096777336e-01  8.4354274221363990e-01  8.3487148310018955e-01  7.5806025713058467e-01  7.5832956794142181e-01  7.4975407064971944e-01  7.4134343758166010e-01  7.3348130698789960e-01  7.2606496865319836e-01  7.1953984407470373e-01  7.1371085295727954e-01  7.0832429491870297e-01  7.0338775334292669e-01  6.9892747581168690e-01  6.9472794923825609e-01  6.8900931095686802e-01  6.8152656632761099e-01  6.7301557963370962e-01  6.6437074851840283e-01  6.5714019667241941e-01  6.5263277166650124e-01  6.5104806457431563e-01  6.5239474869412417e-01  6.5645200458887676e-01  6.6253515553647901e-01  6.6971908069022512e-01  6.7708251232564287e-01  6.8362898204882316e-01  6.8853186387520049e-01  6.9129228250306718e-01  6.9149745265908946e-01  6.8885944025802470e-01  6.8351028812975079e-01  6.7585277955117695e-01  6.6540109900215727e-01  6.5406583799079487e-01  6.4126534797088020e-01  6.2843575034231647e-01  6.1587312384274673e-01  6.0608810875719299e-01  5.9750263109993151e-01  5.9233445711803301e-01  5.9036594621000427e-01  5.9181631495652409e-01  5.9640780439149965e-01  6.1290911225225930e-01  6.2339240992172473e-01  6.3413923534332983e-01  6.4405159680671031e-01  6.5228788596561482e-01  6.5834329891224408e-01  6.6163844679769401e-01  6.6266701661730243e-01  6.6020335595310853e-01  6.5481161165845780e-01  6.4692164277438569e-01  6.3696207897960022e-01  6.2522666733684074e-01  6.1230981209701252e-01  5.9863282024520870e-01  5.8476864702383990e-01  5.7117789028333243e-01  5.5890520288853063e-01  5.4678869098852512e-01  5.3681450814397624e-01  5.2780298220248822e-01  5.2003571951436800e-01  5.1355429576814371e-01  5.0776726251005011e-01  5.0255120795514063e-01  4.9686318965159709e-01  4.9134084926255311e-01  4.8510339763935434e-01  4.7806260534927292e-01  4.7050855710534778e-01  4.6157863109094255e-01  4.5168059755892420e-01  4.4114460368792213e-01  4.3033453247532705e-01  4.1913127784669685e-01  4.0786262285801594e-01  3.9651325637108720e-01  3.8530478797942247e-01  3.7416516019420631e-01  3.6307661367333155e-01  3.5201163133954189e-01  3.4096827056049994e-01  3.2983540015157209e-01  3.1857891523590076e-01  3.0710596610717955e-01  2.9560679282262536e-01  2.8396417659940365e-01  2.7199518138017281e-01  2.5983104434410609e-01  2.4821976539334492e-01  2.3529541253482208e-01  2.2328327662739123e-01  2.1015958101331775e-01  1.9707929780484451e-01  1.8476125427752232e-01  1.7097993596588584e-01  1.5812978195278798e-01  1.4443265216793064e-01  1.3052845119450807e-01  1.1648523919119833e-01  1.0337818185262616e-01  8.8623533925047099e-02  7.4529658811314986e-02  6.0144068043149611e-02  4.4513923924421092e-02  3.0588343937543151e-02  1.5086511478590730e-02  0.0000000000000000e+00  0.0000000000000000e+00  0.0000000000000000e+00  0.0000000000000000e+00  0.0000000000000000e+00  0.0000000000000000e+00  0.0000000000000000e+00  0.0000000000000000e+00  0.0000000000000000e+00  1.4969952542312377e-02  3.0479979662230344e-02  4.6463669583067635e-02  6.1495765165900752e-02  7.6521477846360403e-02  9.1442254958971916e-02  1.0636452275551275e-01  1.2118004960786902e-01  1.3589055969103928e-01  1.5049002835281272e-01  1.6498630059812686e-01  1.7934831667882781e-01  1.9358622598500122e-01  2.0771766792029681e-01  2.2173597834329789e-01  2.3564890475344344e-01  2.4942508286142295e-01  2.6304794049989433e-01  2.7656061861729059e-01  2.8995389645560382e-01  3.0324004953178513e-01  3.1638275600069493e-01  3.2937192507035112e-01  3.4215965120373426e-01  3.5479873078200685e-01  3.6687417759318497e-01  3.7845743450446490e-01  3.8949888488577411e-01  3.9984017087127077e-01  4.0989406440736620e-01  4.2000280417218244e-01  4.3051479016909033e-01  4.4166651043346988e-01  4.5330748315782776e-01  4.6623006315693050e-01  4.7957752140557275e-01  4.9471268547661784e-01  5.0898916694015339e-01  5.2252953772479571e-01  5.3489323533585476e-01  5.4373720317058660e-01  5.5055651374267345e-01  5.5412023995366333e-01  5.5478848689978377e-01  5.5337269191808336e-01  5.5112196860107421e-01  5.4943066316346201e-01  5.5028127235521407e-01  5.5494660026989839e-01  5.6331035369583704e-01  5.7512217699592882e-01  5.8918177703515673e-01  6.0519869412408489e-01  6.1980632004499869e-01  6.3307353376845443e-01  6.4437611276875140e-01  6.5334045196967128e-01  6.5967750831130390e-01  6.6362122957698322e-01  6.6544477602503482e-01  6.6560816982794468e-01  6.6513190387187582e-01  6.6513691221074511e-01  6.6607629309203042e-01  6.6870832596929985e-01  6.7344429061279154e-01  6.8062184510797119e-01  6.8959327735250875e-01  7.0013974196682860e-01  7.1172371103902488e-01  7.2391846610132426e-01  7.3626725046661801e-01  7.4779091131289543e-01  7.5879445836548365e-01  7.6932921156090850e-01  7.7943184170102098e-01  7.8893709686260627e-01  7.9765459936945482e-01  8.0563777537673265e-01  8.1340529194974631e-01  8.2083594013685768e-01  8.2800066307893316e-01  8.3496371407328829e-01  8.4177903120474296e-01  8.4852125978287585e-01  8.5522452550918271e-01  8.6189295953899070e-01  8.6853343575413589e-01  8.7516414991549007e-01  8.8177815636212953e-01  8.8837945390813533e-01  8.9496586532699629e-01  9.0153658255416713e-01  9.0809169621162444e-01  9.1462992514684671e-01  9.2114981688338227e-01  9.2765071634561913e-01  9.3413271236177220e-01  9.4059468812528724e-01  9.4703660136070733e-01  9.5345802358542386e-01  9.5985897332973180e-01  9.6623928720224606e-01  9.7259884465795632e-01  9.7893772390117040e-01  9.8525579107949190e-01  9.9155319465423231e-01  9.9782982625794869e-01  1.0040858463413127e+00  1.0103211984500555e+00  1.0165359951158881e+00  1.0227302521219956e+00  1.0289040166786481e+00  1.0350573696361198e+00  1.0411903570658549e+00  1.0473030431943027e+00  1.0533954872967664e+00  1.0594677598773699e+00  1.0655199284695536e+00  1.0715520520458932e+00  1.0775641984667570e+00  1.0835564187158375e+00  1.0835562863242947e+00  1.0835559445514120e+00  1.0835554056056387e+00  1.0835547454542163e+00  1.0835540863265134e+00  1.0835535454911120e+00  1.0835532063339142e+00  1.0835530735945962e+00  6.5134919570421457e-01  7.6187132940709923e-01  8.3376009993016797e-01  8.1681342761324327e-01  8.6000446609812986e-01  8.1621987456442757e-01  8.2016369757303687e-01  8.2654579055621313e-01  8.3472986649082426e-01  8.4364582252051201e-01  8.5185732769050138e-01  8.6061705275192657e-01  8.6988536812797179e-01  8.7981975774583931e-01  8.9053761959999200e-01  9.0176509860966381e-01  9.1407785904358141e-01  6.7248439576797703e-01  6.9147902561220143e-01  6.7193516743681825e-01  6.2272664560432145e-01  5.9077324573917978e-01  6.0722291995460165e-01  8.3196556392833676e-01  7.1943493538245029e-01  6.4687139163150886e-01  6.6125669403040821e-01  6.3150229414320402e-01  7.2884885142916556e-01  5.7649219173068156e-01  5.3288570443774252e-01  9.2694942403874780e-01  5.0455495237586689e-01  6.7743811795071174e-01  6.6520435959905111e-01  4.8036714098530675e-01  6.6279513681528113e-01  9.4113564797038496e-01  6.1553650886395950e-01  4.4701777156727818e-01  9.5509678959060340e-01  6.6132679963952012e-01  4.0208446568772577e-01  5.5123575775443612e-01  7.5363028854423797e-01  9.7114881095768424e-01  3.5745330131905284e-01  5.5277351476675329e-01  9.8885279172475649e-01  5.2997275566306290e-01  3.1282965936115831e-01  4.8638886847069879e-01  7.9284290248505851e-01  2.6460526513436716e-01  1.0066805620239041e+00  4.4672830918918777e-01  8.1723470683789945e-01  8.3906027297226449e-01  4.1457462709766701e-01  2.1693964440472496e-01  1.0265571441223975e+00  1.0413535557322726e+00  5.5143416238275733e-01  1.7789649309314379e-01  1.3602612246092796e-01  8.6487681785516346e-01  3.8355819674108549e-01  3.3481761310272606e-01  8.8532595107115319e-01  8.2247239439251152e-01  8.5157640040981386e-01  9.0463048019439163e-01  2.9638141630758930e-01  9.6528016572785563e-02  9.3000633669870314e-01  2.4243611978167043e-01  9.6287313333957014e-01  2.0063347284032382e-01  9.9469172071307832e-01  1.5779699337922956e-01  1.0133267391659189e+00  1.0502186630748578e+00  1.0321259518937962e+00  1.1375889716327980e-01  1.0785126884674210e+00  1.4135628802194386e-02  1.0578664819525181e+00  7.0860553325016207e-01  7.0282721423819833e-02  5.1220461202697423e-02  7.4437500375944454e-01  6.7973873583882549e-01  7.7412481877397532e-01  6.9604801815041817e-01  8.5169328449678894e-01  9.1793067493005975e-01  9.4350638300154810e-01  9.7650891743303059e-01  5.8272994924736277e-01  6.5005213743460488e-01  6.6616952687572673e-01  6.6733774117135991e-01  1.0162079365978369e+00  9.9754819359712787e-01  3.6068238326211266e-01  2.6974739914737889e-01  9.8040409222723757e-01  2.4233961873410714e-01  1.0623971661314364e+00  2.8915384015804207e-01  3.3533319257186112e-01  9.6324525286149998e-01  3.7961031390040284e-01  1.0784781214634787e+00  4.2498743748998136e-01  9.4831707492542594e-01  4.6712255381187501e-01  4.9323043772284103e-01  6.2728859846383533e-01  5.1684873871891723e-01  9.3374235614718593e-01  5.5259273642637152e-01  6.0568398958293790e-01  6.5129395605853879e-01  9.2034552778377021e-01  6.5961587889755668e-01  1.1942871236238857e-02  9.0789694729124082e-01  8.9609654549002193e-01  8.8489163982556052e-01  8.7508575667853128e-01  8.6497979601544728e-01  8.5608256044690767e-01  8.4747990764556425e-01  8.3807213109903778e-01  6.5893632984271988e-01  8.2957836165730803e-01  8.2244969363463527e-01  8.1741601358336957e-01  6.8559706679373578e-01  8.1575053961634225e-01  6.4911375980485364e-01  6.8625616334893447e-01  6.0314780526890155e-01  5.9291114000714218e-01  1.0789082764511799e+00  8.5294688655670514e-01  1.4316254608167208e-02  1.0689036418269000e+00  3.8381942767772417e-02  6.9375044130444108e-01  1.1961710301472549e-02  1.0790331605774426e+00  6.8760055722313340e-01  6.8596879879738515e-01  6.7790130143382954e-01  6.8312090617705046e-01  6.7423192261493337e-01  6.7861647729648777e-01  6.6815630757432853e-01  6.7231269312420583e-01  6.5998216621338457e-01  6.6354330905836145e-01  6.4944298569271486e-01  6.5267305605474357e-01  6.3679975138061284e-01  6.4035373407678831e-01  6.2342611813016091e-01  6.2787193923311713e-01  6.1143980701212586e-01  6.1755457003253911e-01  6.0447021362517805e-01  6.1535831697479071e-01  6.0573999566615555e-01  6.3605194027611944e-01  5.9801644550114408e-01  6.0366605740816570e-01  6.3751169594726076e-01  6.6378741739959446e-01  6.0139467593348028e-01  6.1095106399850008e-01  6.1147750526718825e-01  6.2497175247694481e-01  6.2855103272789725e-01  6.4298007014066061e-01  6.4952974054543722e-01  6.6172611084122535e-01  6.7114462196928859e-01  6.8031528136238339e-01  6.9136582919578893e-01  6.9728027821840277e-01  7.0740534058295956e-01  7.0815516879425577e-01  7.1745393736274166e-01  7.1253655183879827e-01  7.2036119831191681e-01  7.1242214385745650e-01  7.1598104750537739e-01  7.0537264331654004e-01  7.0454065960786105e-01  6.9290936970143224e-01  6.8712872791245017e-01  6.7605595241638861e-01  6.6567678382764051e-01  6.6309932601756416e-01  6.8783828687269999e-01  6.5661958649514840e-01  6.4065279218677529e-01  6.3681040421439161e-01  6.1842383006990342e-01  6.1937056339624785e-01  6.0016569401308817e-01  6.0528859836478999e-01  5.8616772420328467e-01  5.9617381588572627e-01  5.7857195193759725e-01  6.1877852303732972e-01  5.9197559157512181e-01  5.7753856612135201e-01  5.9242548646957072e-01  5.8212454812834957e-01  5.9608181173047736e-01  5.9061338412363606e-01  6.8613006766475559e-01  7.0722615572265379e-01  6.6110683865282993e-01  6.0104980962464005e-01  6.0075361390809068e-01  6.9747380759773581e-01  6.0557942498867812e-01  6.1040266291670642e-01  6.0859188933375574e-01  6.1772348134752619e-01  6.0916346290662626e-01  6.2174856726623240e-01  6.5451213776086181e-01  6.0632774925235222e-01  6.2201339342963380e-01  6.0250697954410737e-01  6.1922945741520241e-01  5.9713031838697572e-01  6.1383496497517120e-01  6.2289152343790943e-01  6.9813946984440323e-01  5.9121971170936216e-01  6.0657598118391132e-01  7.0610647856231401e-01  7.2531496270875506e-01  6.8913640528145537e-01  7.0077702555969634e-01  5.8395549468503971e-01  5.9838675663754803e-01  5.7857456693859244e-01  5.8961648126127764e-01  5.7381367300937181e-01  5.8083449486462735e-01  5.9269471750960234e-01  6.1987636818536118e-01  6.3124899651884925e-01  5.6687689333383018e-01  5.6950294916297872e-01  5.7226069061301932e-01  5.8308726376933639e-01  5.7087045410571713e-01  5.6394491295158033e-01  5.5940891105628321e-01  5.5576052783958674e-01  5.4859251317497404e-01  5.4754168054063779e-01  5.3867042778368468e-01  5.3927033558549797e-01  5.2969788919548799e-01  5.3071665269884705e-01  5.2131612677953454e-01  5.2194952451529897e-01  5.1324997021704255e-01  5.1250396683853117e-01  5.0502898224681247e-01  5.0252299574667070e-01  4.9670473746607524e-01  4.9202563620169409e-01  4.8791351237160857e-01  4.8102304676541563e-01  4.7849266936177742e-01  6.0140906486267687e-01  6.6619326651728028e-01  4.6988673695303473e-01  4.6859409397198681e-01  4.5908269841324750e-01  4.5821747716727373e-01  6.3815375149780051e-01  4.4847832286713774e-01  4.4775886387704866e-01  7.1294263542967384e-01  7.1521286708096621e-01  7.2328173274857210e-01  7.3943961161526917e-01  7.4531293968341183e-01  7.5412638385422981e-01  7.6169271613567602e-01  7.6719337118783204e-01  7.7448836732348059e-01  7.7744827891652080e-01  7.8418530091310623e-01  7.8508774780685375e-01  7.9096283163938608e-01  7.9068029319742594e-01  7.9568143754980780e-01  7.9543770216130916e-01  7.9974458323424091e-01  7.9943381129610414e-01  8.0235345333630181e-01  8.0263182702057845e-01  8.0485277124582277e-01  8.0583240271918599e-01  8.0755450274087959e-01  8.0879758906706567e-01  8.1033299042725571e-01  8.1177610538209233e-01  8.1317703977444034e-01  8.1475281917826659e-01  8.1615635517913698e-01  8.1791193109044324e-01  8.0747056626384750e-01  8.1653527297148221e-01  8.1981736930856286e-01  8.2114869010013314e-01  8.2311171577654640e-01  8.2435895719428998e-01  8.2640856517503636e-01  8.2741696584282021e-01  8.2967536098389039e-01  8.2516114229007975e-01  8.3044801489742470e-01  8.3293561234945335e-01  8.3412433886327031e-01  8.3640141628472831e-01  8.3520822370870518e-01  8.3870655424113461e-01  8.3987800049263917e-01  8.4221392444016141e-01  8.4340980553480094e-01  8.4572354989003884e-01  7.7097865586375358e-01  8.4694450845688873e-01  8.4932359983668515e-01  8.4813727106656389e-01  8.5179360859876563e-01  8.5293904619193972e-01  8.5545628821181174e-01  8.5655330603721980e-01  8.5910208823200696e-01  8.0014067071382211e-01  7.9650091589833927e-01  7.9196990591385619e-01  8.0468362058927134e-01  8.6033758263262916e-01  8.6281010837451988e-01  8.6168412751498158e-01  8.6547633798420320e-01  8.6652763631459617e-01  8.6926534550216739e-01  8.7029244907647429e-01  8.7308056038152804e-01  8.7202043178582611e-01  8.7591943415695805e-01  8.7699325855101162e-01  8.7983876406443029e-01  8.3741883653704019e-01  8.8091783810996616e-01  8.8373057284496837e-01  8.0918830366143635e-01  7.7914234905133262e-01  8.5051981529167076e-01  8.1467509381924674e-01  8.8477557784445093e-01  8.8770909678671317e-01  8.8638514696025872e-01  8.9064316004938171e-01  8.9162835432961107e-01  8.9475875151651707e-01  8.9374763855775219e-01  8.9790663449310903e-01  8.9886415357166038e-01  9.0203996539646714e-01  8.2536819742620904e-01  9.0294611677518943e-01  9.0622178815208665e-01  8.7507789155233007e-01  8.4161445165449178e-01  6.2579229595913333e-01  8.3211733268988286e-01  9.0528544929269483e-01  9.0951549613168670e-01  9.1040417853157052e-01  9.1372286380728596e-01  4.3824661660593733e-01  4.3716792102109120e-01  4.2853669945906153e-01  4.2659579599655395e-01  4.1892271417102184e-01  4.1594541184952893e-01  9.1473555580699173e-01  9.1803132047863023e-01  6.0783051114944819e-01  9.1712591587182002e-01  9.2142484991478979e-01  9.2216923522245009e-01  9.2568130264035964e-01  6.8384929640779168e-01  7.5360658402682446e-01  8.5405321540115253e-01  5.2073890333408890e-01  4.0920422479586316e-01  4.0531357385995076e-01  5.8102927906088131e-01  4.8573874509209169e-01  4.1213113138473806e-01  4.0068318446957596e-01  3.9455501212534477e-01  3.8926374792179919e-01  3.8361829826658783e-01  3.7782038379101285e-01  3.7245645885559220e-01  3.6651363702518236e-01  3.6109197988973912e-01  3.5499565086747364e-01  3.4950585515015936e-01  3.4318499561912102e-01  3.3771754780278823e-01  3.3132235505296981e-01  3.2576018438944659e-01  3.1931578789685350e-01  3.1380411872898867e-01  3.0717248156527344e-01  3.0158732572220065e-01  2.9484923680150987e-01  2.8907475676730682e-01  2.8235466833117778e-01  2.7653491589703760e-01  2.6970789306877158e-01  9.2640229185937861e-01  9.2995075920194681e-01  9.2949848884046926e-01  9.3364687638115840e-01  9.3428388249473981e-01  9.3793768579268189e-01  2.6386791210972332e-01  2.5693504974965098e-01  2.5099618909824462e-01  2.4399799679252571e-01  2.3715942467941020e-01  2.3078100239181193e-01  4.4660759024769781e-01  9.3695322151456328e-01  9.4166676165061725e-01  9.4248377534536931e-01  9.4624267362908931e-01  8.6769358927817630e-01  8.7122304128409334e-01  9.4558406556885688e-01  9.5010363363882533e-01  9.5060967926624151e-01  9.5455726541141372e-01  9.5504183182060676e-01  9.5900716658351848e-01  9.585243800