<?xml version="1.0"?>
<VTKFile type="UnstructuredGrid"  version="0.1"  >
<UnstructuredGrid>
<Piece  NumberOfPoints="2945" NumberOfCells="5525">
<Points>
<DataArray  type="Float64"  NumberOfComponents="3"  format="ascii">0 0.1 0  0.95 0.1 0  1 0.1 0  1 0 0  1.5 0 0  3 0 0  3 0.3 0  0 0.3 0  0.0197424558707114 0.1 0  0.03915669042224804 0.1 0  0.05824816022699029 0.1 0  0.07702223050332387 0.1 0  0.09548417327144595 0.1 0  0.1136391897583987 0.1 0  0.1314923700144587 0.1 0  0.1490487330862866 0.1 0  0.1663132263225292 0.1 0  0.1832906857273058 0.1 0  0.1999858946008978 0.1 0  0.216403545770297 0.1 0  0.2325482404045023 0.1 0  0.2484245348165176 0.1 0  0.2640368740372501 0.1 0  0.2793896589642241 0.1 0  0.2944872056237027 0.1 0  0.3093337469555254 0.1 0  0.3239334613687816 0.1 0  0.3382904528528069 0.1 0  0.3524087553122972 0.1 0  0.3662923366391824 0.1 0  0.3799451014768399 0.1 0  0.393370886920506 0.1 0  0.4065734648871676 0.1 0  0.419556546320114 0.1 0  0.4323237821343415 0.1 0  0.4448787573056132 0.1 0  0.4572250047274954 0.1 0  0.4693659926332938 0.1 0  0.4813051343276231 0.1 0  0.4930457849308193 0.1 0  0.5045912455271677 0.1 0  0.5159447600209797 0.1 0  0.5271095174127136 0.1 0  0.5380886618453393 0.1 0  0.5488852725463512 0.1 0  0.5595023868312478 0.1 0  0.5699429904313016 0.1 0  0.5802100167387366 0.1 0  0.5903063508274641 0.1 0  0.6002348329443006 0.1 0  0.6099982499579832 0.1 0  0.6195993483501782 0.1 0  0.6290408246013842 0.1 0  0.6383253354321616 0.1 0  0.6474554910757137 0.1 0  0.6564338522440513 0.1 0  0.6652629482939147 0.1 0  0.6739452579188948 0.1 0  0.6824832240165607 0.1 0  0.6908792415022103 0.1 0  0.6991356755989045 0.1 0  0.7072548438546967 0.1 0  0.7152390281534421 0.1 0  0.7230904746196039 0.1 0  0.7308113906759266 0.1 0  0.7384039435269326 0.1 0  0.7458702676581656 0.1 0  0.7532124631720397 0.1 0  0.7604325921167397 0.1 0  0.7675326856666862 0.1 0  0.7745147374421916 0.1 0  0.7813807123989068 0.1 0  0.7881325374362798 0.1 0  0.7947721131625659 0.1 0  0.8013013031866276 0.1 0  0.8077219449067021 0.1 0  0.8140358419942376 0.1 0  0.8202447685401882 0.1 0  0.8263504700910924 0.1 0  0.8323546643163114 0.1 0  0.8382590362474568 0.1 0  0.8440652473522128 0.1 0  0.8497749272799842 0.1 0  0.8553896837646281 0.1 0  0.8609110933285474 0.1 0  0.866340708855119 0.1 0  0.8716800550492284 0.1 0  0.8769306339052932 0.1 0  0.8820939206038667 0.1 0  0.8871713655604893 0.1 0  0.8921643975475726 0.1 0  0.8970744196575535 0.1 0  0.9019028106970642 0.1 0  0.9066509291259979 0.1 0  0.9113201098984042 0.1 0  0.9159116634553873 0.1 0  0.9204268818729691 0.1 0  0.9248670319440222 0.1 0  0.9292333656649013 0.1 0  0.9335271075812669 0.1 0  0.9377494640511216 0.1 0  0.941901623463222 0.1 0  0.9459847526686701 0.1 0  0.9538461538461205 0.1 0  0.9576923076922409 0.1 0  0.9615384615384381 0.1 0  0.9653846153846337 0.1 0  0.9692307692307542 0.1 0  0.9730769230768747 0.1 0  0.9769230769229952 0.1 0  0.9807692307691157 0.1 0  0.9846153846152361 0.1 0  0.9884615384614317 0.1 0  0.9923076923076356 0.1 0  0.9961538461538395 0.1 0  1 0.09591793123533533 0  1 0.09133596463859224 0  1 0.08619288104391448 0  1 0.08041996484521211 0  1 0.07394008421771697 0  1 0.06666666567302955 0  1 0.05850252932209174 0  1 0.04933859630113544 0  1 0.03905242821848202 0  1 0.02750659386753798 0  1 0.01454683679239736 0  1.015625 0 0  1.03125 0 0  1.046875 0 0  1.0625 0 0  1.078125 0 0  1.09375 0 0  1.109375 0 0  1.125 0 0  1.140625 0 0  1.15625 0 0  1.171875 0 0  1.1875 0 0  1.203125 0 0  1.21875 0 0  1.234375 0 0  1.25 0 0  1.265625 0 0  1.28125 0 0  1.296875 0 0  1.3125 0 0  1.328125 0 0  1.34375 0 0  1.359375 0 0  1.375 0 0  1.390625 0 0  1.40625 0 0  1.421875 0 0  1.4375 0 0  1.453125 0 0  1.46875 0 0  1.484375 0 0  1.515920751924515 0 0  1.531989369316721 0 0  1.54820720925872 0 0  1.564575665560501 0 0  1.581096138674279 0 0  1.597770029901263 0 0  1.614598783332311 0 0  1.631583831055205 0 0  1.64872661129721 0 0  1.666028606716533 0 0  1.683491276608443 0 0  1.701116134125304 0 0  1.718904673324128 0 0  1.736858414799339 0 0  1.754978895814663 0 0  1.773267661782904 0 0  1.791726281103402 0 0  1.810356325314689 0 0  1.8291593848892 0 0  1.848137076690385 0 0  1.867291007717254 0 0  1.886622833871288 0 0  1.90613418642363 0 0  1.925826753299799 0 0  1.945702199101513 0 0  1.96576223584749 0 0  1.986008569283268 0 0  2.006442931928877 0 0  2.02706707547783 0 0  2.047882750887917 0 0  2.06889175187935 0 0  2.090095860038271 0 0  2.111496891648636 0 0  2.133096679109554 0 0  2.154897066851056 0 0  2.176899916687499 0 0  2.199107102752146 0 0  2.22152053937028 0 0  2.244142122958061 0 0  2.266973806444078 0 0  2.290017523268154 0 0  2.313275249499252 0 0  2.336748971745516 0 0  2.360440702338606 0 0  2.384352453384031 0 0  2.408486280477412 0 0  2.432844240041185 0 0  2.457428414757088 0 0  2.482240901796653 0 0  2.507283830121838 0 0  2.532559332080812 0 0  2.558069568787417 0 0  2.583816724966441 0 0  2.60980299606584 0 0  2.636030600971886 0 0  2.662501790984011 0 0  2.689218818279327 0 0  2.716183964547616 0 0  2.743399548861297 0 0  2.77086788244719 0 0  2.798591312896326 0 0  2.826572223178268 0 0  2.854812990138617 0 0  2.883316031690714 0 0  2.912083780657189 0 0  2.941118704633482 0 0  2.970423276998917 0 0  3 0.02999999999994495 0  3 0.05999999999987042 0  3 0.089999999999783 0  3 0.119999999999701 0  3 0.149999999999619 0  3 0.179999999999692 0  3 0.2099999999997737 0  3 0.2399999999998511 0  3 0.2699999999999185 0  2.970138294777171 0.3 0  2.940375666438236 0.3 0  2.910711782853056 0.3 0  2.881146331305122 0.3 0  2.851678975030285 0.3 0  2.822309388626621 0.3 0  2.793037250095074 0.3 0  2.76386223529133 0.3 0  2.734784017903872 0.3 0  2.705802289276642 0.3 0  2.676916713794697 0.3 0  2.648126987654635 0.3 0  2.619432780406184 0.3 0  2.590833779385199 0.3 0  2.562329669847737 0.3 0  2.533920134950189 0.3 0  2.505604855727852 0.3 0  2.477383539822502 0.3 0  2.449255847639465 0.3 0  2.421221492569094 0.3 0  2.393280152486815 0.3 0  2.36543151914496 0.3 0  2.337675285481809 0.3 0  2.310011142385583 0.3 0  2.282438797441587 0.3 0  2.254957931061538 0.3 0  2.227568248063605 0.3 0  2.200269436651085 0.3 0  2.173061204949961 0.3 0  2.145943251515011 0.3 0  2.118915272469994 0.3 0  2.091976978084957 0.3 0  2.065128060700849 0.3 0  2.038368218849433 0.3 0  2.01169717777258 0.3 0  1.985114624111908 0.3 0  1.958620267850966 0.3 0  1.93221382054972 0.3 0  1.905894991850698 0.3 0  1.879663489459713 0.3 0  1.853519019126419 0.3 0  1.827461291053897 0.3 0  1.801490031354372 0.3 0  1.775604937580312 0.3 0  1.74980572560258 0.3 0  1.724092118631866 0.3 0  1.698463829173586 0.3 0  1.672920575782554 0.3 0  1.647462076974085 0.3 0  1.622088043536933 0.3 0  1.5967981978949 0.3 0  1.571592267767068 0.3 0  1.546469970305736 0.3 0  1.521431023814044 0.3 0  1.496475156230927 0.3 0  1.471602093687753 0.3 0  1.446811560490646 0.3 0  1.422103279101731 0.3 0  1.397476971708191 0.3 0  1.37293238939876 0.3 0  1.348469231419202 0.3 0  1.324087248732772 0.3 0  1.299786165921677 0.3 0  1.275565710847046 0.3 0  1.251425617644257 0.3 0  1.227365618676339 0.3 0  1.203385446174014 0.3 0  1.179484853067473 0.3 0  1.155663548773374 0.3 0  1.131921292279077 0.3 0  1.108257802159295 0.3 0  1.084672829009693 0.3 0  1.061166115303374 0.3 0  1.037737392995421 0.3 0  1.01438640299116 0.3 0  0.991112899770314 0.3 0  0.9679166155523955 0.3 0  0.944797284182564 0.3 0  0.921754678526042 0.3 0  0.8987885143602501 0.3 0  0.8758985548820624 0.3 0  0.8530845484099929 0.3 0  0.8303462351786988 0.3 0  0.8076833651172373 0.3 0  0.7850956864865304 0.3 0  0.7625829601354557 0.3 0  0.7401449314598274 0.3 0  0.717781337993959 0.3 0  0.6954919649675473 0.3 0  0.6732765357561226 0.3 0  0.6511348120768439 0.3 0  0.6290665642016573 0.3 0  0.6070715355430467 0.3 0  0.5851494825775325 0.3 0  0.5633001690203812 0.3 0  0.5415233562273221 0.3 0  0.5198187909431873 0.3 0  0.4981862401387795 0.3 0  0.4766254686134248 0.3 0  0.4551362360485234 0.3 0  0.4337182975262159 0.3 0  0.4123714223228037 0.3 0  0.3910953802377493 0.3 0  0.3698899313205595 0.3 0  0.3487548463710963 0.3 0  0.3276898864081783 0.3 0  0.3066948129116018 0.3 0  0.2857694003037476 0.3 0  0.2649134227095047 0.3 0  0.2441266417321288 0.3 0  0.2234088223399122 0.3 0  0.2027597568977288 0.3 0  0.1821792020676698 0.3 0  0.1616669305402443 0.3 0  0.1412227158799362 0.3 0  0.12084633013886 0.3 0  0.1005375673448281 0.3 0  0.08029618164595353 0.3 0  0.06012194778526769 0.3 0  0.04001466495039718 0.3 0  0.01997408913631205 0.3 0  0 0.2800000000000553 0  0 0.2600000000001105 0  0 0.2400000000001658 0  0 0.2200000000002211 0  0 0.2000000000002764 0  0 0.1800000000002244 0  0 0.1600000000001691 0  0 0.140000000000115 0  0 0.1200000000000564 0  1.133778471000506 0.01219539743990768 0  1.003741919047894 0.09354664821474232 0  0.9559421147150347 0.1035858189992458 0  0.9313792160389045 0.1037365237938103 0  0.9788461538460573 0.1033060829993555 0  0.9090102438250753 0.1037269304984056 0  0.8846304212778655 0.1043349840723655 0  0.8581503885465881 0.104741932962923 0  0.8286416220145676 0.1052762843984476 0  0.7982741772533339 0.1053575624517407 0  0.7708789559342691 0.1060290465840416 0  0.741870349714261 0.1078220590984258 0  0.7112469360040695 0.10685702926368 0  0.6783901541417233 0.1079959711853378 0  0.642884733623195 0.1075561996086514 0  0.6056235042367955 0.1085956039602543 0  0.5647007593786924 0.1083187281660325 0  1.1953125 0.01353164693413185 0  1.258148737344733 0.01268350115427042 0  1.320087046516829 0.01426312402966312 0  1.383495130751951 0.01432665475473204 0  1.4453125 0.01315663539200989 0  1.50886768312388 0.01395488397722681 0  0.9942307692307371 0.103330866937657 0  1.119309781943483 0.2802014914557878 0  1.572831235329714 0.01707210522554785 0  1.637611634353954 0.01209340368483431 0  1.709661292005932 0.0146870244871893 0  1.006561890631532 0.07068055446055937 0  1.784793444007901 0.01499371444634687 0  1.855459587353174 0.0
[...]
<PointData  Scalars="pressure"> 
<DataArray  type="Float64"  Name="pressure"  format="ascii">-1.4389118325867054e+00  -1.8626242323670785e+00  -2.3774964374095666e+00  -1.8733045218779327e+00  -1.3519414952034909e+00  0.0000000000000000e+00  0.0000000000000000e+00  -1.4389020594520985e+00  -1.4448345575354247e+00  -1.4506589065805577e+00  -1.4563865432248519e+00  -1.4620190897405256e+00  -1.4675581608415906e+00  -1.4730053124860196e+00  -1.4783621043374959e+00  -1.4836300582427380e+00  -1.4888106523747253e+00  -1.4939054037057695e+00  -1.4989157339688348e+00  -1.5038430548970803e+00  -1.5086887904527555e+00  -1.5134542979100907e+00  -1.5181409541687905e+00  -1.5227500703908030e+00  -1.5272829870120077e+00  -1.5317409527350778e+00  -1.5361252597558057e+00  -1.5404371205092999e+00  -1.5446777818119286e+00  -1.5488483806109148e+00  -1.5529500911970078e+00  -1.5569840902353964e+00  -1.5609514539506892e+00  -1.5648532203552739e+00  -1.5686904431077411e+00  -1.5724643397578570e+00  -1.5761753550481450e+00  -1.5798252007453741e+00  -1.5834139430242662e+00  -1.5869433371133177e+00  -1.5904134864572339e+00  -1.5938255914809762e+00  -1.5971802980518170e+00  -1.6004784629493420e+00  -1.6037207503989643e+00  -1.6069077187077161e+00  -1.6100401475608761e+00  -1.6131185844106584e+00  -1.6161435938683972e+00  -1.6191157894987209e+00  -1.6220357377535644e+00  -1.6249039358676671e+00  -1.6277207657519124e+00  -1.6304869621236500e+00  -1.6332026281441798e+00  -1.6358686275204974e+00  -1.6384854085614886e+00  -1.6410529557683777e+00  -1.6435727856945517e+00  -1.6460438958288810e+00  -1.6484681013142584e+00  -1.6508467892434624e+00  -1.6531790279453515e+00  -1.6554657333805833e+00  -1.6577091750784627e+00  -1.6599070536595515e+00  -1.6620671255338184e+00  -1.6641844119165259e+00  -1.6662578230368597e+00  -1.6682969571594204e+00  -1.6702980376352146e+00  -1.6722694916148113e+00  -1.6742028432833975e+00  -1.6761059123763147e+00  -1.6779820477301348e+00  -1.6798364194433000e+00  -1.6816700345378455e+00  -1.6834830908481784e+00  -1.6852838096258083e+00  -1.6870774937928956e+00  -1.6888764745562457e+00  -1.6906747520268377e+00  -1.6924793918470946e+00  -1.6943133768603609e+00  -1.6961694710179274e+00  -1.6980650165119100e+00  -1.7000299742312737e+00  -1.7020609374302669e+00  -1.7041669934911405e+00  -1.7063812842909198e+00  -1.7087395215199077e+00  -1.7112550057624107e+00  -1.7139602862015564e+00  -1.7169295749846298e+00  -1.7201779140405731e+00  -1.7237907240598502e+00  -1.7278275688217761e+00  -1.7324775787274402e+00  -1.7378467582869352e+00  -1.7440714706214886e+00  -1.7513559167885528e+00  -1.7621406257041536e+00  -1.7648761298538982e+00  -1.8313154144023664e+00  -1.8140129881992615e+00  -1.8267996312316226e+00  -1.8472822663822570e+00  -1.8756895084679714e+00  -1.9109152447317201e+00  -1.9538553373486027e+00  -2.0052728911219773e+00  -2.0652444584219083e+00  -2.1320495096856642e+00  -2.2025487087596356e+00  -2.2505346019980887e+00  -2.1840322189581407e+00  -2.1142386866532541e+00  -2.0598511819482148e+00  -2.0170829478282273e+00  -1.9831453104724710e+00  -1.9544834975262015e+00  -1.9306481252556698e+00  -1.9110278714227309e+00  -1.8950819065236262e+00  -1.8830802984567707e+00  -1.8754411531919568e+00  -1.8701266776063434e+00  -1.8604999179249264e+00  -1.8458152125643967e+00  -1.8278033755439242e+00  -1.8078040293694304e+00  -1.7879395254469810e+00  -1.7693049764279754e+00  -1.7512217474782805e+00  -1.7335331363579753e+00  -1.7161954710855847e+00  -1.6986361661619709e+00  -1.6805190666303216e+00  -1.6618025328093213e+00  -1.6423247087405175e+00  -1.6222937719840240e+00  -1.6020772640987970e+00  -1.5820459417028703e+00  -1.5623984690125261e+00  -1.5436438132951162e+00  -1.5267853181971291e+00  -1.5100119321670606e+00  -1.4956719352159329e+00  -1.4819475046698054e+00  -1.4692351066746920e+00  -1.4569079304376180e+00  -1.4460379582587979e+00  -1.4335273176121477e+00  -1.4206359761709306e+00  -1.4063356118891408e+00  -1.3903071461700223e+00  -1.3721949512193825e+00  -1.3292170604298748e+00  -1.3045633447188694e+00  -1.2783651424375193e+00  -1.2513731458603885e+00  -1.2232893769263433e+00  -1.1961536413326894e+00  -1.1696627281499699e+00  -1.1464674183219783e+00  -1.1245252187377270e+00  -1.1046048579934078e+00  -1.0871088282766563e+00  -1.0720272853407176e+00  -1.0588742787811973e+00  -1.0472530941258660e+00  -1.0364884520510935e+00  -1.0259568576001050e+00  -1.0149805552872402e+00  -1.0035263054283490e+00  -9.8907138138260675e-01  -9.7356739051696661e-01  -9.5493413815080264e-01  -9.3378644041389225e-01  -9.1095143268916756e-01  -8.8650610777912853e-01  -8.6171395041528698e-01  -8.3579031275700633e-01  -8.1185334059228143e-01  -7.8910852848610680e-01  -7.6818943481940383e-01  -7.5013390115981660e-01  -7.3332445665492962e-01  -7.1810519028294906e-01  -7.0460391167579706e-01  -6.9289214256018317e-01  -6.8206187524792738e-01  -6.7166251686180667e-01  -6.6079564628923415e-01  -6.4885773408241443e-01  -6.3493553985738138e-01  -6.1838199656944615e-01  -5.9892774071655219e-01  -5.7677584698884377e-01  -5.5229496148327129e-01  -5.2630692624766617e-01  -4.9961701621428817e-01  -4.7357493786386368e-01  -4.4870963494911331e-01  -4.2509440825751332e-01  -4.0310283778999756e-01  -3.8418974850664667e-01  -3.6446865829315356e-01  -3.4724917001939010e-01  -3.2907092854322867e-01  -3.1061501559945409e-01  -2.9364067599550930e-01  -2.7337636474942650e-01  -2.5380976344951406e-01  -2.3226188112307544e-01  -2.0944461104647466e-01  -1.8605497205136379e-01  -1.6441329197328747e-01  -1.3985757659870263e-01  -1.1664845219013784e-01  -9.3560712020046150e-02  -6.8275921251984881e-02  -4.6842383702794824e-02  -2.3025363412650150e-02  0.0000000000000000e+00  0.0000000000000000e+00  0.0000000000000000e+00  0.0000000000000000e+00  0.0000000000000000e+00  0.0000000000000000e+00  0.0000000000000000e+00  0.0000000000000000e+00  0.0000000000000000e+00  -2.2714089088220129e-02  -4.7117237613506634e-02  -7.1989763572037471e-02  -9.4831821892409435e-02  -1.1750826524348314e-01  -1.3984934440240548e-01  -1.6217950646513313e-01  -1.8452342610023825e-01  -2.0721357731345480e-01  -2.3058122908350193e-01  -2.5491333107937009e-01  -2.8028779667235043e-01  -3.0666200047267789e-01  -3.3372526159339466e-01  -3.6086192711252096e-01  -3.8730975467187256e-01  -4.1215595657114307e-01  -4.3473113525835372e-01  -4.5478798522669500e-01  -4.7245954480214991e-01  -4.8835540238659653e-01  -5.0336339361953841e-01  -5.1861181677866797e-01  -5.3540386305761112e-01  -5.5485912663317705e-01  -5.7726893608060026e-01  -6.0366943171450504e-01  -6.3411068428740980e-01  -6.6772232966113254e-01  -7.0370451119161559e-01  -7.4007203937457400e-01  -7.7457379649036506e-01  -8.0484036464946607e-01  -8.2959082735246548e-01  -8.4839835386157314e-01  -8.6344885202511201e-01  -8.7828021595677963e-01  -8.9223826641596204e-01  -9.0918227314431599e-01  -9.2996398185276530e-01  -9.5297472700155328e-01  -9.8200452231791713e-01  -1.0137991931737194e+00  -1.0477765779313928e+00  -1.0824811416913958e+00  -1.1162285712486764e+00  -1.1469968629869176e+00  -1.1744947095093963e+00  -1.1989682715018410e+00  -1.2199005567054904e+00  -1.2385215171657225e+00  -1.2570710130991158e+00  -1.2774259394102723e+00  -1.2978536442158455e+00  -1.3205489111888538e+00  -1.3453294642784956e+00  -1.3717047567971661e+00  -1.3990045350313767e+00  -1.4269626872417034e+00  -1.4548767708201342e+00  -1.4819524974388911e+00  -1.5077422106239513e+00  -1.5328673990176460e+00  -1.5564438125209450e+00  -1.5788545639412408e+00  -1.6003935024334390e+00  -1.6219920061182167e+00  -1.6428236608173665e+00  -1.6628750012866393e+00  -1.6814720780781471e+00  -1.6981115424820243e+00  -1.7120159421550334e+00  -1.7216955195496773e+00  -1.7275418552216417e+00  -1.7300999492342297e+00  -1.7299636387501189e+00  -1.7278683426441073e+00  -1.7233416549874090e+00  -1.7173833696911516e+00  -1.7110791503505469e+00  -1.7043096386594148e+00  -1.6973118689134439e+00  -1.6900989064095733e+00  -1.6828422376219923e+00  -1.6756439958711231e+00  -1.6685581234784153e+00  -1.6615310736264719e+00  -1.6545813069251067e+00  -1.6477279926355626e+00  -1.6409348539396738e+00  -1.6342086535751246e+00  -1.6275315532963941e+00  -1.6208995814139344e+00  -1.6143074139092308e+00  -1.6077498001692194e+00  -1.6012184895286252e+00  -1.5947164754650187e+00  -1.5882379684685632e+00  -1.5817822455634927e+00  -1.5753481825569098e+00  -1.5689354190015152e+00  -1.5625429387053027e+00  -1.5561707677832026e+00  -1.5498186793761304e+00  -1.5434865781818214e+00  -1.5371744808760501e+00  -1.5308821647364286e+00  -1.5246100977605783e+00  -1.5183577683479423e+00  -1.5121257137891198e+00  -1.5059135692023524e+00  -1.4997214981457705e+00  -1.4935495735144453e+00  -1.4873976242486995e+00  -1.4812657519466867e+00  -1.4751539109258791e+00  -1.4690620828783876e+00  -1.4629902388342835e+00  -1.4569383439730219e+00  -1.4509063718879469e+00  -1.4448942885789393e+00  -1.4389020851602656e+00  -1.4389024807849999e+00  -1.4389034810992236e+00  -1.4389050417008105e+00  -1.4389069440649340e+00  -1.4389088434361343e+00  -1.4389104096924468e+00  -1.4389114025756851e+00  -1.4389117996166187e+00  -1.7408609122094907e+00  -2.1466693266483516e+00  -1.8063102207289465e+00  -1.7404099582992574e+00  -1.9657156614108342e+00  -1.7181944771134059e+00  -1.7050450682004235e+00  -1.6951097745865868e+00  -1.6859010260265397e+00  -1.6770809858989797e+00  -1.6692393987902487e+00  -1.6609044822343961e+00  -1.6520136937145864e+00  -1.6423700515523239e+00  -1.6318487912107271e+00  -1.6207336411246343e+00  -1.6084722529499034e+00  -1.6712890791741439e+00  -1.5919173603476060e+00  -1.5182200676689213e+00  -1.4620671721586249e+00  -1.4133840725953841e+00  -1.3402112354338835e+00  -2.2319469057156236e+00  -1.6908544158764749e+00  -1.2386494231250733e+00  -1.1390575216856653e+00  -1.0653588633179827e+00  -1.9697533223915000e+00  -1.0190669271099513e+00  -9.6698299189066539e-01  -1.5956112827456574e+00  -8.7491186903223306e-01  -1.6107992914688023e+00  -1.5199872673268231e+00  -7.7560975037199409e-01  -1.4121789819346975e+00  -1.5814132965496839e+00  -1.2888648580208364e+00  -7.1142811903560821e-01  -1.5674329263560758e+00  -1.7972560168897376e+00  -6.6560607156160279e-01  -1.1871497721059958e+00  -1.7250571717124064e+00  -1.5513597136466892e+00  -6.0931219269569503e-01  -9.9779257500869867e-01  -1.5336379029307889e+00  -9.1919912455107722e-01  -5.1362548319393475e-01  -8.6919926671374548e-01  -1.7267641107940674e+00  -4.1163093594713929e-01  -1.5157980421137547e+00  -8.1729861729782127e-01  -1.7081877302298945e+00  -1.6858585567154982e+00  -7.2274414341547855e-01  -3.3822484280214626e-01  -1.4959134468020994e+00  -1.4811137717040974e+00  -1.1003772087600774e+00  -2.8367933579095200e-01  -2.1870469716420460e-01  -1.6583973461990891e+00  -6.1782292310886766e-01  -5.2493773726974269e-01  -1.6372951248484329e+00  -1.7703571814242087e+00  -1.8527110027354547e+00  -1.6177733167507962e+00  -4.8011745536822437e-01  -1.5306627117066093e-01  -1.5923548682195399e+00  -4.0040524281381290e-01  -1.5595307050867724e+00  -3.2054055209818211e-01  -1.5277454440014102e+00  -2.4279384563223150e-01  -1.5091212134327079e+00  -1.4722385459201115e+00  -1.4903282754946063e+00  -1.7333418345177409e-01  -1.4439496423321103e+00  -2.2015650806736887e-02  -1.4645990430765163e+00  -1.9001309716026478e+00  -1.0824453401877919e-01  -7.9157258810242645e-02  -2.0357005349481376e+00  -1.8393148010370752e+00  -1.7312435248885023e+00  -1.6533419433931567e+00  -1.6723143143880528e+00  -1.6044318412319050e+00  -1.5788693657401278e+00  -1.5459116654509750e+00  -1.2467114153458665e+00  -1.3569668565934982e+00  -1.4657101014565508e+00  -1.5670603449399034e+00  -1.5062662235669613e+00  -1.5249359311639514e+00  -5.6506299436490071e-01  -4.4529798841140539e-01  -1.5420943531285398e+00  -3.7481489729503431e-01  -1.4600609433721181e+00  -4.5998305429874642e-01  -5.6538119875465753e-01  -1.5592731544893594e+00  -6.4187738980366416e-01  -1.4439817350248212e+00  -6.8695076097824159e-01  -1.5742222247754512e+00  -7.4368297146536655e-01  -8.2186528307114715e-01  -1.2926101283090048e+00  -9.2557521425720890e-01  -1.5888139894908466e+00  -9.9670528798853120e-01  -1.0414300951564583e+00  -1.0967002642694721e+00  -1.6022136324886744e+00  -1.1828699084111560e+00  -1.8210208566349955e-02  -1.6146340845163776e+00  -1.6263554189336962e+00  -1.6374046057664340e+00  -1.6469799733096935e+00  -1.6567335753397623e+00  -1.6652309250118202e+00  -1.6734094095943248e+00  -1.6825233197732126e+00  -1.7061736753043415e+00  -1.6914777589014580e+00  -1.7008705019564025e+00  -1.7122968417719391e+00  -1.6327044492379432e+00  -1.7289803218483142e+00  -1.4885778301846484e+00  -1.5515239077175889e+00  -1.4408565699808453e+00  -1.3816325582047984e+00  -1.4435560523354720e+00  -2.0869640888327159e+00  -2.2356580492054589e-02  -1.4535613925509270e+00  -5.9629476112463511e-02  -1.8672577905054901e+00  -1.8215416967688761e-02  -1.4434254309202199e+00  -1.8553457747702471e+00  -1.8512313194534273e+00  -1.8349204533701660e+00  -1.8470612376256486e+00  -1.8297491810584832e+00  -1.8415410109772099e+00  -1.8219357787418078e+00  -1.8337586567166659e+00  -1.8120783201153676e+00  -1.8222235686903143e+00  -1.7992891077209892e+00  -1.8070757336643417e+00  -1.7836279351088873e+00  -1.7893281578267826e+00  -1.7667868019012960e+00  -1.7713647439285178e+00  -1.7506209930055960e+00  -1.7555050861616008e+00  -1.7380861564697370e+00  -1.7443065850637209e+00  -1.7291743647994486e+00  -1.7688354019824801e+00  -1.7262073099372597e+00  -1.7189056914531355e+00  -1.7563130215253424e+00  -1.7878783771898485e+00  -1.7180152410587584e+00  -1.7113397487379363e+00  -1.7122907363286604e+00  -1.7043647583452688e+00  -1.7049819583240708e+00  -1.6953405313217471e+00  -1.6940857980731456e+00  -1.6828012494063278e+00  -1.6780355259024609e+00  -1.6638779415761822e+00  -1.6557513400377437e+00  -1.6397885680633646e+00  -1.6285370077109191e+00  -1.6132286214951270e+00  -1.5987687486330076e+00  -1.5826712962964193e+00  -1.5679117118733761e+00  -1.5552675677143122e+00  -1.5389408263332491e+00  -1.5286216127993548e+00  -1.5127649416866495e+00  -1.5054751255953540e+00  -1.4905266857108710e+00  -1.4848540537243107e+00  -1.4725515547733063e+00  -1.7702600839510494e+00  -1.8013566994743024e+00  -1.4671066699841853e+00  -1.4568771035479846e+00  -1.4520079306704285e+00  -1.4451462501836216e+00  -1.4387871989293228e+00  -1.4346296471409028e+00  -1.4255609143940848e+00  -1.4234672309542260e+00  -1.4110989767813156e+00  -1.4101447293623091e+00  -1.7126794545459265e+00  -1.3945396815384388e+00  -1.3935619276895956e+00  -1.3751554054850426e+00  -1.3730574073892692e+00  -1.3528065288199058e+00  -1.3486262429705234e+00  -1.7806969185515193e+00  -1.8090837532029067e+00  -1.8191760192263733e+00  -1.3279837660241487e+00  -1.3206888211991032e+00  -1.8312327800898858e+00  -1.3016116767561441e+00  -1.2905087887455835e+00  -1.2743764510284581e+00  -1.2595571887415575e+00  -1.2475939374773872e+00  -1.2289941582436625e+00  -1.6850791112475099e+00  -1.2224079330098934e+00  -1.2001935755624800e+00  -1.1982539053217744e+00  -1.1735647468363157e+00  -1.1756342820288270e+00  -1.1493175777223266e+00  -1.7633235106764709e+00  -1.6234477921004826e+00  -1.1540671898017665e+00  -1.1274214053875786e+00  -1.7845764912270983e+00  -1.8125699891065024e+00  -1.7622094236057881e+00  -1.5439837843422031e+00  -1.1342017935836177e+00  -1.1064193877508637e+00  -1.1127849275919586e+00  -1.0864906973910629e+00  -1.0903893544572500e+00  -1.0673573113110530e+00  -1.3396754587983353e+00  -1.0997380547626381e+00  -1.2399915087742295e+00  -1.4081476464021148e+00  -1.0669559402066635e+00  -1.0477977148054625e+00  -1.0491841362038516e+00  -1.0335418217486032e+00  -1.0274270806043524e+00  -1.0170912219908761e+00  -1.0063514873588069e+00  -9.9887523952519652e-01  -9.8458285401787260e-01  -9.7865605889160534e-01  -9.6248581112714160e-01  -9.5724273421670347e-01  -9.4065977889870256e-01  -9.3492436896290965e-01  -9.1957063032668562e-01  -9.1237830266936037e-01  -8.9989541266958817e-01  -8.9033947937938529e-01  -8.8190136232359340e-01  -8.6900355891139935e-01  -8.6526455846155437e-01  -8.4885367813178236e-01  -8.5005584760565145e-01  -8.2958067013596226e-01  -1.4410180519649043e+00  -1.4788990620801350e+00  -8.3450157097385980e-01  -8.1056332648363560e-01  -8.1707470591129594e-01  -7.9102665758106283e-01  -1.7020720578146540e+00  -7.9712992569499386e-01  -7.7012875062059549e-01  -1.5234491305817039e+00  -1.6129267476081519e+00  -1.7815797274750091e+00  -1.7921675337103380e+00  -1.8300725517204457e+00  -1.8102091074916182e+00  -1.8405451362802254e+00  -1.8150490999741911e+00  -1.8391387319669872e+00  -1.8095279409293026e+00  -1.8249984437142237e+00  -1.7979616202487863e+00  -1.8036104618698254e+00  -1.7821597853485984e+00  -1.7801595405865405e+00  -1.7654297742360345e+00  -1.7571958444848048e+00  -1.7498879991236933e+00  -1.7417083491238416e+00  -1.7373076063715143e+00  -1.7309488304664082e+00  -1.7275953636332326e+00  -1.7224596885895302e+00  -1.7201368940840749e+00  -1.7159522537678458e+00  -1.7141345432166015e+00  -1.7107178472908198e+00  -1.7091528626271115e+00  -1.7061907999733081e+00  -1.7046117447585958e+00  -1.7237713915366744e+00  -1.7076381670986975e+00  -1.7031412874552383e+00  -1.7004669528579164e+00  -1.6990235091321162e+00  -1.6967345992604679e+00  -1.6952138001155752e+00  -1.6934082659205567e+00  -1.6916443354150257e+00  -1.6975276437722917e+00  -1.6901439406371470e+00  -1.6882229818812116e+00  -1.6864973297595580e+00  -1.6847050162107793e+00  -1.6865181636712918e+00  -1.6829111889614374e+00  -1.6812431386112543e+00  -1.6793632901952500e+00  -1.6778012338192450e+00  -1.6758771270519581e+00  -1.8726616060745067e+00  -1.6743737165667816e+00  -1.6723230799182585e+00  -1.6738528877699583e+00  -1.6701837184971293e+00  -1.6687673295095495e+00  -1.6665382646415818e+00  -1.6652285296866838e+00  -1.6629296040097619e+00  -1.7713265513449201e+00  -1.7545531299189243e+00  -1.8339884355220650e+00  -1.7335876354462982e+00  -1.6615060708361575e+00  -1.6592664968604165e+00  -1.6605606335450880e+00  -1.6567805537598013e+00  -1.6556049402422437e+00  -1.6530141208981635e+00  -1.6519006260947389e+00  -1.6492313727988259e+00  -1.6503691651333106e+00  -1.6464757259438352e+00  -1.6453529427105400e+00  -1.6425726126698381e+00  -1.6848497968859784e+00  -1.6414649394803444e+00  -1.6387016634152549e+00  -1.7180539504154926e+00  -1.7885802278569636e+00  -1.6718149973146965e+00  -1.7078995113509179e+00  -1.6376429432278448e+00  -1.6347470549316521e+00  -1.6360728791333574e+00  -1.6318292460064898e+00  -1.6308509443425012e+00  -1.6277297627173104e+00  -1.6287225302774697e+00  -1.6245745351037155e+00  -1.6236413869317650e+00  -1.6204547267947551e+00  -1.6950740209918860e+00  -1.6195757054408031e+00  -1.6162870624277796e+00  -1.6473814942277076e+00  -1.6792556489431052e+00  -1.4291343064295976e+00  -1.6881314174099100e+00  -1.6171876104939016e+00  -1.6129710157603510e+00  -1.6121184857926141e+00  -1.6087772437878030e+00  -7.7484857272893382e-01  -7.4851729980792836e-01  -7.4965809881212797e-01  -7.2530636937423310e-01  -7.2189088625597575e-01  -7.0163922722625527e-01  -1.6077995362497093e+00  -1.6044818882739575e+00  -1.3317681381072446e+00  -1.6053466780942878e+00  -1.6010616433023628e+00  -1.6003546764503929e+00  -1.5968178762988048e+00  -1.8554993524556802e+00  -1.7845321692876996e+00  -1.6674485334150297e+00  -9.5114991793644155e-01  -6.9306028429829825e-01  -6.7817454053242143e-01  -1.0364484185973966e+00  -8.2871206894645810e-01  -6.8621199932504862e-01  -6.6839330675663844e-01  -6.5530613264471715e-01  -6.5048023720813641e-01  -6.3316743720717883e-01  -6.3208879276364494e-01  -6.1153125346450432e-01  -6.1278359575077723e-01  -5.9036194320509316e-01  -5.9193585913332492e-01  -5.6923634453213012e-01  -5.6929368785814660e-01  -5.4826201365204830e-01  -5.4600894925015064e-01  -5.2792833526612093e-01  -5.2250268738895511e-01  -5.086239889861180