<?xml version="1.0"?>
<VTKFile type="UnstructuredGrid"  version="0.1"  >
<UnstructuredGrid>
<Piece  NumberOfPoints="2945" NumberOfCells="5525">
<Points>
<DataArray  type="Float64"  NumberOfComponents="3"  format="ascii">0 0.1 0  0.95 0.1 0  1 0.1 0  1 0 0  1.5 0 0  3 0 0  3 0.3 0  0 0.3 0  0.0197424558707114 0.1 0  0.03915669042224804 0.1 0  0.05824816022699029 0.1 0  0.07702223050332387 0.1 0  0.09548417327144595 0.1 0  0.1136391897583987 0.1 0  0.1314923700144587 0.1 0  0.1490487330862866 0.1 0  0.1663132263225292 0.1 0  0.1832906857273058 0.1 0  0.1999858946008978 0.1 0  0.216403545770297 0.1 0  0.2325482404045023 0.1 0  0.2484245348165176 0.1 0  0.2640368740372501 0.1 0  0.2793896589642241 0.1 0  0.2944872056237027 0.1 0  0.3093337469555254 0.1 0  0.3239334613687816 0.1 0  0.3382904528528069 0.1 0  0.3524087553122972 0.1 0  0.3662923366391824 0.1 0  0.3799451014768399 0.1 0  0.393370886920506 0.1 0  0.4065734648871676 0.1 0  0.419556546320114 0.1 0  0.4323237821343415 0.1 0  0.4448787573056132 0.1 0  0.4572250047274954 0.1 0  0.4693659926332938 0.1 0  0.4813051343276231 0.1 0  0.4930457849308193 0.1 0  0.5045912455271677 0.1 0  0.5159447600209797 0.1 0  0.5271095174127136 0.1 0  0.5380886618453393 0.1 0  0.5488852725463512 0.1 0  0.5595023868312478 0.1 0  0.5699429904313016 0.1 0  0.5802100167387366 0.1 0  0.5903063508274641 0.1 0  0.6002348329443006 0.1 0  0.6099982499579832 0.1 0  0.6195993483501782 0.1 0  0.6290408246013842 0.1 0  0.6383253354321616 0.1 0  0.6474554910757137 0.1 0  0.6564338522440513 0.1 0  0.6652629482939147 0.1 0  0.6739452579188948 0.1 0  0.6824832240165607 0.1 0  0.6908792415022103 0.1 0  0.6991356755989045 0.1 0  0.7072548438546967 0.1 0  0.7152390281534421 0.1 0  0.7230904746196039 0.1 0  0.7308113906759266 0.1 0  0.7384039435269326 0.1 0  0.7458702676581656 0.1 0  0.7532124631720397 0.1 0  0.7604325921167397 0.1 0  0.7675326856666862 0.1 0  0.7745147374421916 0.1 0  0.7813807123989068 0.1 0  0.7881325374362798 0.1 0  0.7947721131625659 0.1 0  0.8013013031866276 0.1 0  0.8077219449067021 0.1 0  0.8140358419942376 0.1 0  0.8202447685401882 0.1 0  0.8263504700910924 0.1 0  0.8323546643163114 0.1 0  0.8382590362474568 0.1 0  0.8440652473522128 0.1 0  0.8497749272799842 0.1 0  0.8553896837646281 0.1 0  0.8609110933285474 0.1 0  0.866340708855119 0.1 0  0.8716800550492284 0.1 0  0.8769306339052932 0.1 0  0.8820939206038667 0.1 0  0.8871713655604893 0.1 0  0.8921643975475726 0.1 0  0.8970744196575535 0.1 0  0.9019028106970642 0.1 0  0.9066509291259979 0.1 0  0.9113201098984042 0.1 0  0.9159116634553873 0.1 0  0.9204268818729691 0.1 0  0.9248670319440222 0.1 0  0.9292333656649013 0.1 0  0.9335271075812669 0.1 0  0.9377494640511216 0.1 0  0.941901623463222 0.1 0  0.9459847526686701 0.1 0  0.9538461538461205 0.1 0  0.9576923076922409 0.1 0  0.9615384615384381 0.1 0  0.9653846153846337 0.1 0  0.9692307692307542 0.1 0  0.9730769230768747 0.1 0  0.9769230769229952 0.1 0  0.9807692307691157 0.1 0  0.9846153846152361 0.1 0  0.9884615384614317 0.1 0  0.9923076923076356 0.1 0  0.9961538461538395 0.1 0  1 0.09591793123533533 0  1 0.09133596463859224 0  1 0.08619288104391448 0  1 0.08041996484521211 0  1 0.07394008421771697 0  1 0.06666666567302955 0  1 0.05850252932209174 0  1 0.04933859630113544 0  1 0.03905242821848202 0  1 0.02750659386753798 0  1 0.01454683679239736 0  1.015625 0 0  1.03125 0 0  1.046875 0 0  1.0625 0 0  1.078125 0 0  1.09375 0 0  1.109375 0 0  1.125 0 0  1.140625 0 0  1.15625 0 0  1.171875 0 0  1.1875 0 0  1.203125 0 0  1.21875 0 0  1.234375 0 0  1.25 0 0  1.265625 0 0  1.28125 0 0  1.296875 0 0  1.3125 0 0  1.328125 0 0  1.34375 0 0  1.359375 0 0  1.375 0 0  1.390625 0 0  1.40625 0 0  1.421875 0 0  1.4375 0 0  1.453125 0 0  1.46875 0 0  1.484375 0 0  1.515920751924515 0 0  1.531989369316721 0 0  1.54820720925872 0 0  1.564575665560501 0 0  1.581096138674279 0 0  1.597770029901263 0 0  1.614598783332311 0 0  1.631583831055205 0 0  1.64872661129721 0 0  1.666028606716533 0 0  1.683491276608443 0 0  1.701116134125304 0 0  1.718904673324128 0 0  1.736858414799339 0 0  1.754978895814663 0 0  1.773267661782904 0 0  1.791726281103402 0 0  1.810356325314689 0 0  1.8291593848892 0 0  1.848137076690385 0 0  1.867291007717254 0 0  1.886622833871288 0 0  1.90613418642363 0 0  1.925826753299799 0 0  1.945702199101513 0 0  1.96576223584749 0 0  1.986008569283268 0 0  2.006442931928877 0 0  2.02706707547783 0 0  2.047882750887917 0 0  2.06889175187935 0 0  2.090095860038271 0 0  2.111496891648636 0 0  2.133096679109554 0 0  2.154897066851056 0 0  2.176899916687499 0 0  2.199107102752146 0 0  2.22152053937028 0 0  2.244142122958061 0 0  2.266973806444078 0 0  2.290017523268154 0 0  2.313275249499252 0 0  2.336748971745516 0 0  2.360440702338606 0 0  2.384352453384031 0 0  2.408486280477412 0 0  2.432844240041185 0 0  2.457428414757088 0 0  2.482240901796653 0 0  2.507283830121838 0 0  2.532559332080812 0 0  2.558069568787417 0 0  2.583816724966441 0 0  2.60980299606584 0 0  2.636030600971886 0 0  2.662501790984011 0 0  2.689218818279327 0 0  2.716183964547616 0 0  2.743399548861297 0 0  2.77086788244719 0 0  2.798591312896326 0 0  2.826572223178268 0 0  2.854812990138617 0 0  2.883316031690714 0 0  2.912083780657189 0 0  2.941118704633482 0 0  2.970423276998917 0 0  3 0.02999999999994495 0  3 0.05999999999987042 0  3 0.089999999999783 0  3 0.119999999999701 0  3 0.149999999999619 0  3 0.179999999999692 0  3 0.2099999999997737 0  3 0.2399999999998511 0  3 0.2699999999999185 0  2.970138294777171 0.3 0  2.940375666438236 0.3 0  2.910711782853056 0.3 0  2.881146331305122 0.3 0  2.851678975030285 0.3 0  2.822309388626621 0.3 0  2.793037250095074 0.3 0  2.76386223529133 0.3 0  2.734784017903872 0.3 0  2.705802289276642 0.3 0  2.676916713794697 0.3 0  2.648126987654635 0.3 0  2.619432780406184 0.3 0  2.590833779385199 0.3 0  2.562329669847737 0.3 0  2.533920134950189 0.3 0  2.505604855727852 0.3 0  2.477383539822502 0.3 0  2.449255847639465 0.3 0  2.421221492569094 0.3 0  2.393280152486815 0.3 0  2.36543151914496 0.3 0  2.337675285481809 0.3 0  2.310011142385583 0.3 0  2.282438797441587 0.3 0  2.254957931061538 0.3 0  2.227568248063605 0.3 0  2.200269436651085 0.3 0  2.173061204949961 0.3 0  2.145943251515011 0.3 0  2.118915272469994 0.3 0  2.091976978084957 0.3 0  2.065128060700849 0.3 0  2.038368218849433 0.3 0  2.01169717777258 0.3 0  1.985114624111908 0.3 0  1.958620267850966 0.3 0  1.93221382054972 0.3 0  1.905894991850698 0.3 0  1.879663489459713 0.3 0  1.853519019126419 0.3 0  1.827461291053897 0.3 0  1.801490031354372 0.3 0  1.775604937580312 0.3 0  1.74980572560258 0.3 0  1.724092118631866 0.3 0  1.698463829173586 0.3 0  1.672920575782554 0.3 0  1.647462076974085 0.3 0  1.622088043536933 0.3 0  1.5967981978949 0.3 0  1.571592267767068 0.3 0  1.546469970305736 0.3 0  1.521431023814044 0.3 0  1.496475156230927 0.3 0  1.471602093687753 0.3 0  1.446811560490646 0.3 0  1.422103279101731 0.3 0  1.397476971708191 0.3 0  1.37293238939876 0.3 0  1.348469231419202 0.3 0  1.324087248732772 0.3 0  1.299786165921677 0.3 0  1.275565710847046 0.3 0  1.251425617644257 0.3 0  1.227365618676339 0.3 0  1.203385446174014 0.3 0  1.179484853067473 0.3 0  1.155663548773374 0.3 0  1.131921292279077 0.3 0  1.108257802159295 0.3 0  1.084672829009693 0.3 0  1.061166115303374 0.3 0  1.037737392995421 0.3 0  1.01438640299116 0.3 0  0.991112899770314 0.3 0  0.9679166155523955 0.3 0  0.944797284182564 0.3 0  0.921754678526042 0.3 0  0.8987885143602501 0.3 0  0.8758985548820624 0.3 0  0.8530845484099929 0.3 0  0.8303462351786988 0.3 0  0.8076833651172373 0.3 0  0.7850956864865304 0.3 0  0.7625829601354557 0.3 0  0.7401449314598274 0.3 0  0.717781337993959 0.3 0  0.6954919649675473 0.3 0  0.6732765357561226 0.3 0  0.6511348120768439 0.3 0  0.6290665642016573 0.3 0  0.6070715355430467 0.3 0  0.5851494825775325 0.3 0  0.5633001690203812 0.3 0  0.5415233562273221 0.3 0  0.5198187909431873 0.3 0  0.4981862401387795 0.3 0  0.4766254686134248 0.3 0  0.4551362360485234 0.3 0  0.4337182975262159 0.3 0  0.4123714223228037 0.3 0  0.3910953802377493 0.3 0  0.3698899313205595 0.3 0  0.3487548463710963 0.3 0  0.3276898864081783 0.3 0  0.3066948129116018 0.3 0  0.2857694003037476 0.3 0  0.2649134227095047 0.3 0  0.2441266417321288 0.3 0  0.2234088223399122 0.3 0  0.2027597568977288 0.3 0  0.1821792020676698 0.3 0  0.1616669305402443 0.3 0  0.1412227158799362 0.3 0  0.12084633013886 0.3 0  0.1005375673448281 0.3 0  0.08029618164595353 0.3 0  0.06012194778526769 0.3 0  0.04001466495039718 0.3 0  0.01997408913631205 0.3 0  0 0.2800000000000553 0  0 0.2600000000001105 0  0 0.2400000000001658 0  0 0.2200000000002211 0  0 0.2000000000002764 0  0 0.1800000000002244 0  0 0.1600000000001691 0  0 0.140000000000115 0  0 0.1200000000000564 0  1.133778471000506 0.01219539743990768 0  1.003741919047894 0.09354664821474232 0  0.9559421147150347 0.1035858189992458 0  0.9313792160389045 0.1037365237938103 0  0.9788461538460573 0.1033060829993555 0  0.9090102438250753 0.1037269304984056 0  0.8846304212778655 0.1043349840723655 0  0.8581503885465881 0.104741932962923 0  0.8286416220145676 0.1052762843984476 0  0.7982741772533339 0.1053575624517407 0  0.7708789559342691 0.1060290465840416 0  0.741870349714261 0.1078220590984258 0  0.7112469360040695 0.10685702926368 0  0.6783901541417233 0.1079959711853378 0  0.642884733623195 0.1075561996086514 0  0.6056235042367955 0.1085956039602543 0  0.5647007593786924 0.1083187281660325 0  1.1953125 0.01353164693413185 0  1.258148737344733 0.01268350115427042 0  1.320087046516829 0.01426312402966312 0  1.383495130751951 0.01432665475473204 0  1.4453125 0.01315663539200989 0  1.50886768312388 0.01395488397722681 0  0.9942307692307371 0.103330866937657 0  1.119309781943483 0.2802014914557878 0  1.572831235329714 0.01707210522554785 0  1.637611634353954 0.01209340368483431 0  1.709661292005932 0.0146870244871893 0  1.006561890631532 0.07068055446055937 0  1.784793444007901 0.01499371444634687 0  1.855459587353174 0.0
[...]
<PointData  Scalars="pressure"> 
<DataArray  type="Float64"  Name="pressure"  format="ascii">1.2814406569038508e+00  9.4989785147581141e-01  2.6554911451998198e-01  5.7531867361287370e-01  6.3843655010431977e-01  0.0000000000000000e+00  0.0000000000000000e+00  1.2814469594815925e+00  1.2755179326783326e+00  1.2696936444746605e+00  1.2639661482143987e+00  1.2583338393908090e+00  1.2527951336260192e+00  1.2473484794809964e+00  1.2419923384560283e+00  1.2367252480097399e+00  1.2315456896756676e+00  1.2264522426374875e+00  1.2214435306948785e+00  1.2165181169811763e+00  1.2116746806660792e+00  1.2069118864145962e+00  1.2022284547130799e+00  1.1976231155650108e+00  1.1930946613838704e+00  1.1886418800069216e+00  1.1842636502916475e+00  1.1799588046197651e+00  1.1757263600781462e+00  1.1715652800535727e+00  1.1674742916037320e+00  1.1634528108775495e+00  1.1594997310672106e+00  1.1556143924409459e+00  1.1517958398039858e+00  1.1480429729463979e+00  1.1443562085745176e+00  1.1407334277387522e+00  1.1371756772371970e+00  1.1336805515311847e+00  1.1302493872038617e+00  1.1268809445512380e+00  1.1235752017750253e+00  1.1203316201122555e+00  1.1171502685807797e+00  1.1140311400835672e+00  1.1109739895946906e+00  1.1079792018019425e+00  1.1050469236983489e+00  1.1021771714282618e+00  1.0993707063454516e+00  1.0966274021697526e+00  1.0939479776629562e+00  1.0913331005964919e+00  1.0887837156588180e+00  1.0863000198416191e+00  1.0838833105523245e+00  1.0815334345290508e+00  1.0792547907708068e+00  1.0770417281367277e+00  1.0749045567259217e+00  1.0728356423805150e+00  1.0708411171999770e+00  1.0689212797625967e+00  1.0670766542673431e+00  1.0653100585106627e+00  1.0636257865236785e+00  1.0620148940501613e+00  1.0604877017677263e+00  1.0590457431240725e+00  1.0576885443859863e+00  1.0564187154559348e+00  1.0552296628323230e+00  1.0541354479613931e+00  1.0531306661511581e+00  1.0522173798127168e+00  1.0513979558369109e+00  1.0506728549106439e+00  1.0500427131534202e+00  1.0495099664539644e+00  1.0490728595949872e+00  1.0487316840344638e+00  1.0484908041331622e+00  1.0483476563137739e+00  1.0483014665150427e+00  1.0483505034121654e+00  1.0484949838078375e+00  1.0487301709117804e+00  1.0490508031352876e+00  1.0494643969097202e+00  1.0499488420461449e+00  1.0505047981100601e+00  1.0511171644838881e+00  1.0517707009521164e+00  1.0524535839674869e+00  1.0531322753464847e+00  1.0537818600777042e+00  1.0543406768045649e+00  1.0547458707477126e+00  1.0549682421617317e+00  1.0549509563217632e+00  1.0518969132797313e+00  1.0605644066517108e+00  1.0175088294874393e+00  1.0767996730086720e+00  1.0990273874431029e+00  1.1090773913703522e+00  1.1023396016596678e+00  1.0769067330079183e+00  1.0294981568181030e+00  9.5756998606716859e-01  8.6061570232496842e-01  7.4171276726987789e-01  6.0724892131591124e-01  4.9312653443936927e-01  4.2634681054498663e-01  4.6907618269208473e-01  4.9639159535571953e-01  5.1576121703121458e-01  5.3041235303654577e-01  5.4262645501067941e-01  5.5277925565557384e-01  5.6106357341829771e-01  5.6766887053108994e-01  5.7245248873663790e-01  5.7500704901666166e-01  5.7584205608551686e-01  5.7939843736064878e-01  5.8590503834714902e-01  5.9464293320214723e-01  6.0497654514828958e-01  6.1575765913904545e-01  6.2605170922125686e-01  6.3556362592502691e-01  6.4378805469221523e-01  6.5036329555467143e-01  6.5524397320752414e-01  6.5851649642487520e-01  6.6031531203314431e-01  6.6090872676112666e-01  6.6056340859936669e-01  6.5952574105524353e-01  6.5805876271597696e-01  6.5637162509707869e-01  6.5459496489221525e-01  6.5278596112823783e-01  6.5122303037585161e-01  6.4969449591347528e-01  6.4839376890572975e-01  6.4726620681703217e-01  6.4626727187998945e-01  6.4510912903169348e-01  6.4421375176090079e-01  6.4323599628833950e-01  6.4220205765004335e-01  6.4107290482390200e-01  6.3982704371060062e-01  6.3683800185503370e-01  6.3501598309106444e-01  6.3293127781083214e-01  6.3057953400083333e-01  6.2802412063710711e-01  6.2519069144022921e-01  6.2205939286863787e-01  6.1834697453318233e-01  6.1439577911193521e-01  6.1018318641195568e-01  6.0564598028032934e-01  6.0074208688456476e-01  5.9549400037910294e-01  5.8991749970728569e-01  5.8401960777656037e-01  5.7781353094697918e-01  5.7131412661734970e-01  5.6433994528160791e-01  5.5724390688958958e-01  5.4978662175321680e-01  5.4203773721825710e-01  5.3413774793599789e-01  5.2597067714240442e-01  5.1758375563299819e-01  5.0895955489472255e-01  5.0024801768192950e-01  4.9144009661995591e-01  4.8226033797504170e-01  4.7296666749754063e-01  4.6329871704625875e-01  4.5358764936514168e-01  4.4382962303491885e-01  4.3397852600535530e-01  4.2394109324494439e-01  4.1375249144519971e-01  4.0345372342806712e-01  3.9303919120436998e-01  3.8251236023242163e-01  3.7183773152147870e-01  3.6105592857306079e-01  3.5016094963763472e-01  3.3912847398906254e-01  3.2795536264635916e-01  3.1665528644575169e-01  3.0525595865616378e-01  2.9371059502535696e-01  2.8195109742472213e-01  2.7008607786544492e-01  2.5821364132778535e-01  2.4585605130004004e-01  2.3354991668683228e-01  2.2117755507892273e-01  2.0841402269160864e-01  1.9604408047012772e-01  1.8287356268741922e-01  1.6975835047257862e-01  1.5669499764175118e-01  1.4307948175550694e-01  1.2970824003315495e-01  1.1620335114348340e-01  1.0201887574676000e-01  8.7947404926641742e-02  7.3634367597497169e-02  5.8948700155329901e-02  4.5080100980422255e-02  3.0243197043004492e-02  1.5205008361197238e-02  0.0000000000000000e+00  0.0000000000000000e+00  0.0000000000000000e+00  0.0000000000000000e+00  0.0000000000000000e+00  0.0000000000000000e+00  0.0000000000000000e+00  0.0000000000000000e+00  0.0000000000000000e+00  1.5934068174705645e-02  3.0417188119909871e-02  4.5630150176928105e-02  6.0885375356711222e-02  7.5895877519228314e-02  9.0768130659389892e-02  1.0552877716220077e-01  1.2021348232408924e-01  1.3479840295666840e-01  1.4927935601538644e-01  1.6366691777206965e-01  1.7795528423015144e-01  1.9212348252648070e-01  2.0617392863393666e-01  2.2009246748647343e-01  2.3388395427023098e-01  2.4757773074688935e-01  2.6112493361571870e-01  2.7452745722542410e-01  2.8777614968721887e-01  3.0087248444012205e-01  3.1381176658383292e-01  3.2658835477464815e-01  3.3912004438733689e-01  3.5151547630899144e-01  3.6379705688439001e-01  3.7585226432668079e-01  3.8777195219521182e-01  3.9950139339952201e-01  4.1092240020921367e-01  4.2202263529692424e-01  4.3282064069401577e-01  4.4371086630071926e-01  4.5406990048370810e-01  4.6447336982220477e-01  4.7486161197140658e-01  4.8446012130758637e-01  4.9421806585269473e-01  5.0343907084779160e-01  5.1266836005297345e-01  5.2172284266740099e-01  5.3025479372629991e-01  5.3867506506089946e-01  5.4687349450916545e-01  5.5484385741868136e-01  5.6264912492939678e-01  5.7029397123929748e-01  5.7753655316088726e-01  5.8456959185402002e-01  5.9155083692656230e-01  5.9840209727970040e-01  6.0479941856683306e-01  6.1122042210218896e-01  6.1772838616164194e-01  6.2406189425011294e-01  6.3034339087469815e-01  6.3670785057369794e-01  6.4317797484802042e-01  6.4971846522277577e-01  6.5629017234296050e-01  6.6296535698872661e-01  6.6944363674232765e-01  6.7580220176310302e-01  6.8221085041527185e-01  6.8885016554337863e-01  6.9599317506402991e-01  7.0424713346971013e-01  7.1439132813184147e-01  7.2698423676756885e-01  7.4263537045326200e-01  7.6110839760205762e-01  7.8318597055179640e-01  8.0766620540828049e-01  8.3409224724937459e-01  8.6058379897756088e-01  8.8731250830600472e-01  9.1175177457695422e-01  9.3503790033670553e-01  9.5587117656286513e-01  9.7353631335401758e-01  9.8918458769494377e-01  1.0028664232384372e+00  1.0151866068037108e+00  1.0261952671798593e+00  1.0361601712233177e+00  1.0452964767145039e+00  1.0538978660429446e+00  1.0620180736734035e+00  1.0697406907755755e+00  1.0772060763083655e+00  1.0844361069123407e+00  1.0915038890950548e+00  1.0984344660935974e+00  1.1052543760409417e+00  1.1119862997291357e+00  1.1186562592330902e+00  1.1252625926053417e+00  1.1318227645387886e+00  1.1383414018455589e+00  1.1448257372425574e+00  1.1512778670072783e+00  1.1577000878427577e+00  1.1640960347208886e+00  1.1704663983427279e+00  1.1768131953551169e+00  1.1831363874050671e+00  1.1894373865386607e+00  1.1957164945328334e+00  1.2019740369511671e+00  1.2082104097623394e+00  1.2144258203494547e+00  1.2206204287584048e+00  1.2267943863365744e+00  1.2329478267303005e+00  1.2390808568312037e+00  1.2451935567305026e+00  1.2512860044225418e+00  1.2573582778118524e+00  1.2634104473907815e+00  1.2694425738323265e+00  1.2754547251973021e+00  1.2814469469633700e+00  1.2814467086452550e+00  1.2814460725752730e+00  1.2814450574732161e+00  1.2814438087689490e+00  1.2814425618467007e+00  1.2814415432970394e+00  1.2814409117636945e+00  1.2814406732676875e+00  6.4029756166592111e-01  4.4900846846565118e-01  1.0565314589307331e+00  1.0552938081490255e+00  9.7122096803259927e-01  1.0525019044793547e+00  1.0495213707133670e+00  1.0484894934379285e+00  1.0499446313240017e+00  1.0536574575980271e+00  1.0584361451687994e+00  1.0645522952564612e+00  1.0718522606282173e+00  1.0803531517631271e+00  1.0900623195281507e+00  1.1006275826535119e+00  1.1125074224655667e+00  6.5973272138211003e-01  6.5891267414255406e-01  6.5197242035452918e-01  6.4646390396686282e-01  6.4243699281631284e-01  6.3719368541830568e-01  5.2742051979515703e-01  7.5251137044508121e-01  6.2886115110590968e-01  6.1662112657421619e-01  5.9785537328965732e-01  5.3544933423726448e-01  5.7340776506011171e-01  5.4657373353152638e-01  1.1251235858301030e+00  5.1308729594644897e-01  7.0039769176144795e-01  6.7337165048951564e-01  4.7589446370340377e-01  6.4690663956314420e-01  1.1391602582095857e+00  6.1568603946813116e-01  4.3937606571181670e-01  1.1530479572961563e+00  6.1057645398245675e-01  3.9817983668898504e-01  5.8118851020394269e-01  8.1976288615907755e-01  1.1690607934196846e+00  3.5556370634681345e-01  5.3452026582830925e-01  1.1867476871619922e+00  5.0857019350320265e-01  3.1091484168895317e-01  4.7888180345041520e-01  9.2132127761469673e-01  2.6273986531108107e-01  1.2045697906476265e+00  4.4868850642869307e-01  9.8128528715294627e-01  1.0218331791505380e+00  4.1608401829274644e-01  2.1507125875963035e-01  1.2244448475338474e+00  1.2392411008833635e+00  5.5889066499529894e-01  1.7636846144782639e-01  1.3498934449009398e-01  1.0576017478357236e+00  3.8137503448698618e-01  3.3191244743502846e-01  1.0811339178276571e+00  1.0471801726973053e+00  1.0843069452795253e+00  1.1016711840961346e+00  2.9412402616248740e-01  9.5575414964444549e-02  1.1276549122504707e+00  2.4064866171227317e-01  1.1607241130948747e+00  1.9913088852317978e-01  1.1925777539170535e+00  1.5654343939610804e-01  1.2112165376909794e+00  1.2481092463690842e+00  1.2300164929291371e+00  1.1285750536446337e-01  1.2764014463803064e+00  1.4037375067055888e-02  1.2557540474025146e+00  5.6475869506435150e-01  6.9690828466001289e-02  5.0998684617913063e-02  5.0699248945229913e-01  5.8939373935865835e-01  8.7135181935655759e-01  7.2107353709225919e-01  1.0405592316056618e+00  1.1153770406234405e+00  1.1412788354449819e+00  1.1743827471487567e+00  6.0192394143480554e-01  6.3382284339588757e-01  6.5965135424167887e-01  6.8608058375609149e-01  1.2140961085639024e+00  1.1954394819046350e+00  3.5753705711994532e-01  2.6778047063954602e-01  1.1783049949833413e+00  2.4032688648323092e-01  1.2602877250310229e+00  2.8718432430682878e-01  3.3349755511662604e-01  1.1611724900758196e+00  3.7711831202103185e-01  1.2763680522185055e+00  4.1904633920702039e-01  1.1462976188281149e+00  4.5976122632634880e-01  4.9467582799353005e-01  6.3359025492806342e-01  5.3062234233843197e-01  1.1318326716142464e+00  5.6048681770247599e-01  5.8661508517668681e-01  6.0778220190717547e-01  1.1186317885261783e+00  6.2296046754094381e-01  1.1874515576014610e-02  1.1065144526250728e+00  1.0952526145181036e+00  1.0848908064157132e+00  1.0762292315668278e+00  1.0678962147111268e+00  1.0612656111288905e+00  1.0557478291065743e+00  1.0511162566929544e+00  6.5336846039800944e-01  1.0487425461079627e+00  1.0488650062052023e+00  1.0511574650331053e+00  6.6097388423725090e-01  1.0544452605206258e+00  6.4897504624515512e-01  6.5534615962449316e-01  6.4457027319709714e-01  6.4013590963832245e-01  1.2767961028130954e+00  7.8330695265357730e-01  1.4300752792731292e-02  1.2667912242180013e+00  3.7896826017900662e-02  5.7738341760774459e-01  1.1948200424749951e-02  1.2769236573440770e+00  5.8221055529083998e-01  5.8394135798374447e-01  5.9120561434947572e-01  5.8497635739871345e-01  5.9266786157088125e-01  5.8585322375876192e-01  5.9487613920278959e-01  5.8706508157158777e-01  5.9756758909156493e-01  5.8924928752709549e-01  6.0166986205263662e-01  5.9271945378279545e-01  6.0787159395573120e-01  5.9821343213781575e-01  6.1639907732798915e-01  6.0647775607954268e-01  6.2787215207426084e-01  6.1796742689519590e-01  6.4112777474614191e-01  6.3481909673409376e-01  6.5636483484873209e-01  6.1201499148797411e-01  6.6221065114385569e-01  6.7482417401510442e-01  6.3551816631409463e-01  6.1706104764045333e-01  6.7902928312383548e-01  6.8835007875087284e-01  6.8792791264570785e-01  6.9488415008656879e-01  6.9184754625724088e-01  6.9582348462427790e-01  6.9068619452548996e-01  6.9293961747791366e-01  6.8673098965537549e-01  6.8833092223033243e-01  6.8097325908609985e-01  6.8070358883157156e-01  6.7427207392159794e-01  6.7405409204495959e-01  6.6785798083782044e-01  6.6804314067150605e-01  6.6226361824185476e-01  6.6257173484182563e-01  6.5765971168246218e-01  6.5841911904178740e-01  6.5405543123401877e-01  6.5525026865063851e-01  6.5134686471854641e-01  6.5264670877417885e-01  6.4937645801097199e-01  6.4689827063744898e-01  6.3876835045739522e-01  6.5033830208364185e-01  6.4726840483488313e-01  6.4816050610535370e-01  6.4584555592903703e-01  6.4615678418395539e-01  6.4418872311430486e-01  6.4392058228081028e-01  6.4239305403875135e-01  6.4142430456468025e-01  6.4028643036045474e-01  6.8635532156355183e-01  6.3865756904538062e-01  6.3788337056111633e-01  6.3558229234890840e-01  6.3513687128773078e-01  6.3218512820549488e-01  6.3204523477254937e-01  6.6775620124858548e-01  6.6792641907885342e-01  5.8127132322759067e-01  6.2845326040089344e-01  6.2857055865024181e-01  6.1081240560282413e-01  6.2445170471521017e-01  6.2473717621390379e-01  6.2003962184955186e-01  6.2052068491461487e-01  6.1533573368739380e-01  6.1589591718287751e-01  6.9726622216839229e-01  6.1009623423195658e-01  6.1085420005494351e-01  6.0477649554650492e-01  6.0546382149019662e-01  5.9902471047274763e-01  5.9968104593694371e-01  6.2452450122971415e-01  6.8031435613315128e-01  5.9295670983644722e-01  5.9351053009442001e-01  6.9629815881124912e-01  7.0134786640213531e-01  6.9423929849185995e-01  6.6407556422750980e-01  5.8623537873562703e-01  5.8689709242756805e-01  5.7943435724700953e-01  5.7992936998128941e-01  5.7234253133751578e-01  5.7276377210146656e-01  6.3195983837733449e-01  5.9394801180113665e-01  6.2098351238329907e-01  6.3950964278330946e-01  5.6507686571747417e-01  5.6530957641456403e-01  5.7305060702333410e-01  5.6554998832586023e-01  5.5766094827359713e-01  5.5782469712297655e-01  5.4983024566142591e-01  5.4968319653052711e-01  5.4169147621189162e-01  5.4108286008557926e-01  5.3331842510774152e-01  5.3241129811305765e-01  5.2477113157032640e-01  5.2350412150888836e-01  5.1596379118189883e-01  5.1441739088083593e-01  5.0703496235701051e-01  5.0524590107021949e-01  4.9789054121545062e-01  4.9574739310212462e-01  4.8860013262987462e-01  4.8608463515187794e-01  4.7900658409074437e-01  4.7625131590298636e-01  6.4428923832741869e-01  6.5421914255523228e-01  4.6934994911875322e-01  4.6626069272910875e-01  4.5955543796741599e-01  4.5609710447172686e-01  6.8594045160061135e-01  4.4947066475640179e-01  4.4575017531952477e-01  6.5416559846595357e-01  6.6856748583402947e-01  7.3025599818094633e-01  7.5274087539823986e-01  7.2715541360161406e-01  7.7010673304296251e-01  7.5949354247634260e-01  8.0164669750709638e-01  8.0080095290198716e-01  8.3960780764625820e-01  8.5053916326051870e-01  8.7794481087130738e-01  8.9939123325364989e-01  9.1386312662680491e-01  9.4243778358022856e-01  9.4669125638057328e-01  9.8087230603135300e-01  9.7467161162483817e-01  1.0002162495692066e+00  9.9155136752403072e-01  1.0134265824116349e+00  1.0069047626398429e+00  1.0227108467308237e+00  1.0159954663725579e+00  1.0285825395840829e+00  1.0223827364186724e+00  1.0324088773757425e+00  1.0270212111562778e+00  1.0352859860471875e+00  1.0308731470042147e+00  1.0022899947518682e+00  1.0221852173293540e+00  1.0267949793237467e+00  1.0341184673643615e+00  1.0307757464335425e+00  1.0367912233591163e+00  1.0342261083586328e+00  1.0390120767710251e+00  1.0373103134870596e+00  1.0281041938335043e+00  1.0417837466756106e+00  1.0402068547657495e+00  1.0439657504853641e+00  1.0430886865449198e+00  1.0389544339124344e+00  1.0423729269456457e+00  1.0459485543225766e+00  1.0456912621782177e+00  1.0487177011591937e+00  1.0488668003328268e+00  7.5121633009050193e-01  1.0515252110016846e+00  1.0521244337743394e+00  1.0491389723526854e+00  1.0527838978594839e+00  1.0554212694389602e+00  1.0563632976372297e+00  1.0586886861682872e+00  1.0598636795652219e+00  9.7726314123453217e-01  9.5236402148063581e-01  8.7363558184637302e-01  1.0225306281398638e+00  1.0622592590955799e+00  1.0634184387987753e+00  1.0611817925373304e+00  1.0649848832335371e+00  1.0669386873564506e+00  1.0687456704810470e+00  1.0704908611542425e+00  1.0724894581415139e+00  1.0706741167585467e+00  1.0746555558263642e+00  1.0763260644744954e+00  1.0785972699929800e+00  1.0379779444373638e+00  1.0801523674092219e+00  1.0824776780245771e+00  1.0356999773767994e+00  8.6182062880776056e-01  1.0495913543298083e+00  1.0400628407895065e+00  1.0839011286139375e+00  1.0864140582898147e+00  1.0847043687318323e+00  1.0889792310136173e+00  1.0902918182866943e+00  1.0931085729894434e+00  1.0917725847469577e+00  1.0959953814258305e+00  1.0972096260630897e+00  1.1001656042405930e+00  1.0411401193437355e+00  1.1012726512311455e+00  1.1043633783907523e+00  1.0730869347895715e+00  1.0488854472954756e+00  6.4598791257485211e-01  1.0450152749388097e+00  1.1032327993979198e+00  1.1075070113853562e+00  1.1085486507790421e+00  1.1117404057457518e+00  4.3924970901832472e-01  4.3532734477240520e-01  4.2902404530177496e-01  4.2468126373773174e-01  4.1855720685236580e-01  4.1388835211810510e-01  1.1128720941760561e+00  1.1160614995015343e+00  6.2858658184019600e-01  1.1150439528001688e+00  1.1193701431940459e+00  1.1202016753236073e+00  1.1236419216066769e+00  5.7787582608168631e-01  7.9144179362427314e-01  1.0576883813256797e+00  5.3124186161649622e-01  4.0790098193291852e-01  4.0303612142940387e-01  5.7287542268353997e-01  4.8342341950999557e-01  4.0910584709521214e-01  3.9809439771812893e-01  3.9207681159434310e-01  3.8692768979386677e-01  3.8099337570694297e-01  3.7560680908934058e-01  3.6976348262718933e-01  3.6431933323559001e-01  3.5841408737230740e-01  3.5278332371158955e-01  3.4689685600369669e-01  3.4094636310321813e-01  3.3521565259856551e-01  3.2908141232904664e-01  3.2338230454685235e-01  3.1709781761336647e-01  3.1154707688972894e-01  3.0500247519628593e-01  2.9943829324351523e-01  2.9273870780911498e-01  2.8702040654170918e-01  2.8031592520923360e-01  2.7456286064945273e-01  2.6774148435524991e-01  1.1244287490554281e+00  1.1279174856491587e+00  1.1274086330407938e+00  1.1315702093568580e+00  1.1322515489800054e+00  1.1358675268307210e+00  2.6197331653466843e-01  2.5504579028354296e-01  2.4917058115578750e-01  2.4218750220635332e-01  2.3541980528751755e-01  2.2905415905435977e-01  4.4165967336827666e-01  1.1348370452152841e+00  1.1395676844453855e+00  1.1404167762794024e+00  1.1441517066160389e+00  1.0687340142303401e+00  1.0719408296028519e+00  1.1434658768572505e+00  1.1479958296543347e+00  1.1485220860390892e+00  1.1524552721147201e+00  1.1529545212651655e+00  1.1569077650101842e+00  1.156412983