<?xml version="1.0"?>
<VTKFile type="UnstructuredGrid"  version="0.1"  >
<UnstructuredGrid>
<Piece  NumberOfPoints="2945" NumberOfCells="5525">
<Points>
<DataArray  type="Float64"  NumberOfComponents="3"  format="ascii">0 0.1 0  0.95 0.1 0  1 0.1 0  1 0 0  1.5 0 0  3 0 0  3 0.3 0  0 0.3 0  0.0197424558707114 0.1 0  0.03915669042224804 0.1 0  0.05824816022699029 0.1 0  0.07702223050332387 0.1 0  0.09548417327144595 0.1 0  0.1136391897583987 0.1 0  0.1314923700144587 0.1 0  0.1490487330862866 0.1 0  0.1663132263225292 0.1 0  0.1832906857273058 0.1 0  0.1999858946008978 0.1 0  0.216403545770297 0.1 0  0.2325482404045023 0.1 0  0.2484245348165176 0.1 0  0.2640368740372501 0.1 0  0.2793896589642241 0.1 0  0.2944872056237027 0.1 0  0.3093337469555254 0.1 0  0.3239334613687816 0.1 0  0.3382904528528069 0.1 0  0.3524087553122972 0.1 0  0.3662923366391824 0.1 0  0.3799451014768399 0.1 0  0.393370886920506 0.1 0  0.4065734648871676 0.1 0  0.419556546320114 0.1 0  0.4323237821343415 0.1 0  0.4448787573056132 0.1 0  0.4572250047274954 0.1 0  0.4693659926332938 0.1 0  0.4813051343276231 0.1 0  0.4930457849308193 0.1 0  0.5045912455271677 0.1 0  0.5159447600209797 0.1 0  0.5271095174127136 0.1 0  0.5380886618453393 0.1 0  0.5488852725463512 0.1 0  0.5595023868312478 0.1 0  0.5699429904313016 0.1 0  0.5802100167387366 0.1 0  0.5903063508274641 0.1 0  0.6002348329443006 0.1 0  0.6099982499579832 0.1 0  0.6195993483501782 0.1 0  0.6290408246013842 0.1 0  0.6383253354321616 0.1 0  0.6474554910757137 0.1 0  0.6564338522440513 0.1 0  0.6652629482939147 0.1 0  0.6739452579188948 0.1 0  0.6824832240165607 0.1 0  0.6908792415022103 0.1 0  0.6991356755989045 0.1 0  0.7072548438546967 0.1 0  0.7152390281534421 0.1 0  0.7230904746196039 0.1 0  0.7308113906759266 0.1 0  0.7384039435269326 0.1 0  0.7458702676581656 0.1 0  0.7532124631720397 0.1 0  0.7604325921167397 0.1 0  0.7675326856666862 0.1 0  0.7745147374421916 0.1 0  0.7813807123989068 0.1 0  0.7881325374362798 0.1 0  0.7947721131625659 0.1 0  0.8013013031866276 0.1 0  0.8077219449067021 0.1 0  0.8140358419942376 0.1 0  0.8202447685401882 0.1 0  0.8263504700910924 0.1 0  0.8323546643163114 0.1 0  0.8382590362474568 0.1 0  0.8440652473522128 0.1 0  0.8497749272799842 0.1 0  0.8553896837646281 0.1 0  0.8609110933285474 0.1 0  0.866340708855119 0.1 0  0.8716800550492284 0.1 0  0.8769306339052932 0.1 0  0.8820939206038667 0.1 0  0.8871713655604893 0.1 0  0.8921643975475726 0.1 0  0.8970744196575535 0.1 0  0.9019028106970642 0.1 0  0.9066509291259979 0.1 0  0.9113201098984042 0.1 0  0.9159116634553873 0.1 0  0.9204268818729691 0.1 0  0.9248670319440222 0.1 0  0.9292333656649013 0.1 0  0.9335271075812669 0.1 0  0.9377494640511216 0.1 0  0.941901623463222 0.1 0  0.9459847526686701 0.1 0  0.9538461538461205 0.1 0  0.9576923076922409 0.1 0  0.9615384615384381 0.1 0  0.9653846153846337 0.1 0  0.9692307692307542 0.1 0  0.9730769230768747 0.1 0  0.9769230769229952 0.1 0  0.9807692307691157 0.1 0  0.9846153846152361 0.1 0  0.9884615384614317 0.1 0  0.9923076923076356 0.1 0  0.9961538461538395 0.1 0  1 0.09591793123533533 0  1 0.09133596463859224 0  1 0.08619288104391448 0  1 0.08041996484521211 0  1 0.07394008421771697 0  1 0.06666666567302955 0  1 0.05850252932209174 0  1 0.04933859630113544 0  1 0.03905242821848202 0  1 0.02750659386753798 0  1 0.01454683679239736 0  1.015625 0 0  1.03125 0 0  1.046875 0 0  1.0625 0 0  1.078125 0 0  1.09375 0 0  1.109375 0 0  1.125 0 0  1.140625 0 0  1.15625 0 0  1.171875 0 0  1.1875 0 0  1.203125 0 0  1.21875 0 0  1.234375 0 0  1.25 0 0  1.265625 0 0  1.28125 0 0  1.296875 0 0  1.3125 0 0  1.328125 0 0  1.34375 0 0  1.359375 0 0  1.375 0 0  1.390625 0 0  1.40625 0 0  1.421875 0 0  1.4375 0 0  1.453125 0 0  1.46875 0 0  1.484375 0 0  1.515920751924515 0 0  1.531989369316721 0 0  1.54820720925872 0 0  1.564575665560501 0 0  1.581096138674279 0 0  1.597770029901263 0 0  1.614598783332311 0 0  1.631583831055205 0 0  1.64872661129721 0 0  1.666028606716533 0 0  1.683491276608443 0 0  1.701116134125304 0 0  1.718904673324128 0 0  1.736858414799339 0 0  1.754978895814663 0 0  1.773267661782904 0 0  1.791726281103402 0 0  1.810356325314689 0 0  1.8291593848892 0 0  1.848137076690385 0 0  1.867291007717254 0 0  1.886622833871288 0 0  1.90613418642363 0 0  1.925826753299799 0 0  1.945702199101513 0 0  1.96576223584749 0 0  1.986008569283268 0 0  2.006442931928877 0 0  2.02706707547783 0 0  2.047882750887917 0 0  2.06889175187935 0 0  2.090095860038271 0 0  2.111496891648636 0 0  2.133096679109554 0 0  2.154897066851056 0 0  2.176899916687499 0 0  2.199107102752146 0 0  2.22152053937028 0 0  2.244142122958061 0 0  2.266973806444078 0 0  2.290017523268154 0 0  2.313275249499252 0 0  2.336748971745516 0 0  2.360440702338606 0 0  2.384352453384031 0 0  2.408486280477412 0 0  2.432844240041185 0 0  2.457428414757088 0 0  2.482240901796653 0 0  2.507283830121838 0 0  2.532559332080812 0 0  2.558069568787417 0 0  2.583816724966441 0 0  2.60980299606584 0 0  2.636030600971886 0 0  2.662501790984011 0 0  2.689218818279327 0 0  2.716183964547616 0 0  2.743399548861297 0 0  2.77086788244719 0 0  2.798591312896326 0 0  2.826572223178268 0 0  2.854812990138617 0 0  2.883316031690714 0 0  2.912083780657189 0 0  2.941118704633482 0 0  2.970423276998917 0 0  3 0.02999999999994495 0  3 0.05999999999987042 0  3 0.089999999999783 0  3 0.119999999999701 0  3 0.149999999999619 0  3 0.179999999999692 0  3 0.2099999999997737 0  3 0.2399999999998511 0  3 0.2699999999999185 0  2.970138294777171 0.3 0  2.940375666438236 0.3 0  2.910711782853056 0.3 0  2.881146331305122 0.3 0  2.851678975030285 0.3 0  2.822309388626621 0.3 0  2.793037250095074 0.3 0  2.76386223529133 0.3 0  2.734784017903872 0.3 0  2.705802289276642 0.3 0  2.676916713794697 0.3 0  2.648126987654635 0.3 0  2.619432780406184 0.3 0  2.590833779385199 0.3 0  2.562329669847737 0.3 0  2.533920134950189 0.3 0  2.505604855727852 0.3 0  2.477383539822502 0.3 0  2.449255847639465 0.3 0  2.421221492569094 0.3 0  2.393280152486815 0.3 0  2.36543151914496 0.3 0  2.337675285481809 0.3 0  2.310011142385583 0.3 0  2.282438797441587 0.3 0  2.254957931061538 0.3 0  2.227568248063605 0.3 0  2.200269436651085 0.3 0  2.173061204949961 0.3 0  2.145943251515011 0.3 0  2.118915272469994 0.3 0  2.091976978084957 0.3 0  2.065128060700849 0.3 0  2.038368218849433 0.3 0  2.01169717777258 0.3 0  1.985114624111908 0.3 0  1.958620267850966 0.3 0  1.93221382054972 0.3 0  1.905894991850698 0.3 0  1.879663489459713 0.3 0  1.853519019126419 0.3 0  1.827461291053897 0.3 0  1.801490031354372 0.3 0  1.775604937580312 0.3 0  1.74980572560258 0.3 0  1.724092118631866 0.3 0  1.698463829173586 0.3 0  1.672920575782554 0.3 0  1.647462076974085 0.3 0  1.622088043536933 0.3 0  1.5967981978949 0.3 0  1.571592267767068 0.3 0  1.546469970305736 0.3 0  1.521431023814044 0.3 0  1.496475156230927 0.3 0  1.471602093687753 0.3 0  1.446811560490646 0.3 0  1.422103279101731 0.3 0  1.397476971708191 0.3 0  1.37293238939876 0.3 0  1.348469231419202 0.3 0  1.324087248732772 0.3 0  1.299786165921677 0.3 0  1.275565710847046 0.3 0  1.251425617644257 0.3 0  1.227365618676339 0.3 0  1.203385446174014 0.3 0  1.179484853067473 0.3 0  1.155663548773374 0.3 0  1.131921292279077 0.3 0  1.108257802159295 0.3 0  1.084672829009693 0.3 0  1.061166115303374 0.3 0  1.037737392995421 0.3 0  1.01438640299116 0.3 0  0.991112899770314 0.3 0  0.9679166155523955 0.3 0  0.944797284182564 0.3 0  0.921754678526042 0.3 0  0.8987885143602501 0.3 0  0.8758985548820624 0.3 0  0.8530845484099929 0.3 0  0.8303462351786988 0.3 0  0.8076833651172373 0.3 0  0.7850956864865304 0.3 0  0.7625829601354557 0.3 0  0.7401449314598274 0.3 0  0.717781337993959 0.3 0  0.6954919649675473 0.3 0  0.6732765357561226 0.3 0  0.6511348120768439 0.3 0  0.6290665642016573 0.3 0  0.6070715355430467 0.3 0  0.5851494825775325 0.3 0  0.5633001690203812 0.3 0  0.5415233562273221 0.3 0  0.5198187909431873 0.3 0  0.4981862401387795 0.3 0  0.4766254686134248 0.3 0  0.4551362360485234 0.3 0  0.4337182975262159 0.3 0  0.4123714223228037 0.3 0  0.3910953802377493 0.3 0  0.3698899313205595 0.3 0  0.3487548463710963 0.3 0  0.3276898864081783 0.3 0  0.3066948129116018 0.3 0  0.2857694003037476 0.3 0  0.2649134227095047 0.3 0  0.2441266417321288 0.3 0  0.2234088223399122 0.3 0  0.2027597568977288 0.3 0  0.1821792020676698 0.3 0  0.1616669305402443 0.3 0  0.1412227158799362 0.3 0  0.12084633013886 0.3 0  0.1005375673448281 0.3 0  0.08029618164595353 0.3 0  0.06012194778526769 0.3 0  0.04001466495039718 0.3 0  0.01997408913631205 0.3 0  0 0.2800000000000553 0  0 0.2600000000001105 0  0 0.2400000000001658 0  0 0.2200000000002211 0  0 0.2000000000002764 0  0 0.1800000000002244 0  0 0.1600000000001691 0  0 0.140000000000115 0  0 0.1200000000000564 0  1.133778471000506 0.01219539743990768 0  1.003741919047894 0.09354664821474232 0  0.9559421147150347 0.1035858189992458 0  0.9313792160389045 0.1037365237938103 0  0.9788461538460573 0.1033060829993555 0  0.9090102438250753 0.1037269304984056 0  0.8846304212778655 0.1043349840723655 0  0.8581503885465881 0.104741932962923 0  0.8286416220145676 0.1052762843984476 0  0.7982741772533339 0.1053575624517407 0  0.7708789559342691 0.1060290465840416 0  0.741870349714261 0.1078220590984258 0  0.7112469360040695 0.10685702926368 0  0.6783901541417233 0.1079959711853378 0  0.642884733623195 0.1075561996086514 0  0.6056235042367955 0.1085956039602543 0  0.5647007593786924 0.1083187281660325 0  1.1953125 0.01353164693413185 0  1.258148737344733 0.01268350115427042 0  1.320087046516829 0.01426312402966312 0  1.383495130751951 0.01432665475473204 0  1.4453125 0.01315663539200989 0  1.50886768312388 0.01395488397722681 0  0.9942307692307371 0.103330866937657 0  1.119309781943483 0.2802014914557878 0  1.572831235329714 0.01707210522554785 0  1.637611634353954 0.01209340368483431 0  1.709661292005932 0.0146870244871893 0  1.006561890631532 0.07068055446055937 0  1.784793444007901 0.01499371444634687 0  1.855459587353174 0.0
[...]
<PointData  Scalars="pressure"> 
<DataArray  type="Float64"  Name="pressure"  format="ascii">-2.7309806724617065e+01  -2.9314863030927153e+01  -2.9113847414798212e+01  -2.6403816559283062e+01  -2.0261372720584724e+01  0.0000000000000000e+00  0.0000000000000000e+00  -2.7309781228989078e+01  -2.7315729462958622e+01  -2.7321554035447981e+01  -2.7327282162176100e+01  -2.7332915506359708e+01  -2.7338455755920787e+01  -2.7343904466577804e+01  -2.7349263305441195e+01  -2.7354533836196872e+01  -2.7359717567369607e+01  -2.7364816247050562e+01  -2.7369831319571880e+01  -2.7374764287120573e+01  -2.7379616819892519e+01  -2.7384390406422444e+01  -2.7389086690247179e+01  -2.7393707196199596e+01  -2.7398253602572709e+01  -2.7402727470835195e+01  -2.7407130516700015e+01  -2.7411464421780103e+01  -2.7415731067592784e+01  -2.7419931811354740e+01  -2.7424068784282710e+01  -2.7428144147510437e+01  -2.7432159901423265e+01  -2.7436117769790066e+01  -2.7440019518671743e+01  -2.7443870406576927e+01  -2.7447668098284495e+01  -2.7451419975375341e+01  -2.7455124203938325e+01  -2.7458788703778616e+01  -2.7462413705498797e+01  -2.7466005192363731e+01  -2.7469563342599404e+01  -2.7473095664919875e+01  -2.7476604362023867e+01  -2.7480095866810171e+01  -2.7483577768270578e+01  -2.7487051431232192e+01  -2.7490525432225958e+01  -2.7494010021610602e+01  -2.7497503052404660e+01  -2.7501023110510793e+01  -2.7504577677017060e+01  -2.7508170988868496e+01  -2.7511821417819693e+01  -2.7515537510641888e+01  -2.7519322941104601e+01  -2.7523216555183993e+01  -2.7527176713626247e+01  -2.7531306855868298e+01  -2.7535549796231749e+01  -2.7539958038551003e+01  -2.7544546128571390e+01  -2.7549351403958372e+01  -2.7554363754134506e+01  -2.7559661140987693e+01  -2.7565168167350400e+01  -2.7571026137761763e+01  -2.7577275700192029e+01  -2.7583848132863800e+01  -2.7590867474756251e+01  -2.7598299143449257e+01  -2.7606298678228772e+01  -2.7614818384915640e+01  -2.7623986314628727e+01  -2.7633802349103966e+01  -2.7644319677606305e+01  -2.7655662787571188e+01  -2.7667907694735018e+01  -2.7681176809753200e+01  -2.7695427987813932e+01  -2.7710815021837838e+01  -2.7727560120019426e+01  -2.7745577567098252e+01  -2.7765286644787160e+01  -2.7786730769288155e+01  -2.7809999071999279e+01  -2.7835305179463766e+01  -2.7863108137751514e+01  -2.7893522498961364e+01  -2.7926963083206857e+01  -2.7963746701358641e+01  -2.8004623318276895e+01  -2.8049772625117757e+01  -2.8100535975150461e+01  -2.8157181168889355e+01  -2.8221422775979526e+01  -2.8294876610108997e+01  -2.8380003626095633e+01  -2.8479197617637737e+01  -2.8598201066819705e+01  -2.8747015717048676e+01  -2.8926318113683973e+01  -2.9543202677826702e+01  -2.9729243796394723e+01  -2.9896259921394542e+01  -3.0001159100019049e+01  -3.0041761970113022e+01  -3.0026189790402352e+01  -2.9960299247848337e+01  -2.9861977813046181e+01  -2.9732582740737381e+01  -2.9580785047117857e+01  -2.9402782771293680e+01  -2.9106210776576507e+01  -2.8448718700765642e+01  -2.7908138831412248e+01  -2.7602197936773237e+01  -2.7351202833537389e+01  -2.7145612807653801e+01  -2.6970033394815538e+01  -2.6816685652857583e+01  -2.6686413999757409e+01  -2.6575762865808116e+01  -2.6488755742286159e+01  -2.6429681731977389e+01  -2.6373565722910939e+01  -2.6299765661236542e+01  -2.6188856506705658e+01  -2.6048646393483462e+01  -2.5888221290731700e+01  -2.5712142109993199e+01  -2.5521952265102424e+01  -2.5325177612531927e+01  -2.5123440739283115e+01  -2.4916294669702165e+01  -2.4706167443031610e+01  -2.4493548676916163e+01  -2.4278364501015460e+01  -2.4062143027364456e+01  -2.3845522004399843e+01  -2.3628821586520996e+01  -2.3412204879322378e+01  -2.3197251663145714e+01  -2.2983065537487160e+01  -2.2767907498794703e+01  -2.2559408628420222e+01  -2.2346816964048589e+01  -2.2138893750085348e+01  -2.1931122923515144e+01  -2.1725889267545966e+01  -2.1514408300598163e+01  -2.1310111067808290e+01  -2.1102068145319603e+01  -2.0893729908716889e+01  -2.0684117855954433e+01  -2.0473363231437219e+01  -2.0043967091013734e+01  -1.9822364407883079e+01  -1.9597613692414019e+01  -1.9368905516336742e+01  -1.9141274340646095e+01  -1.8908546249189360e+01  -1.8675320791902941e+01  -1.8434213297149142e+01  -1.8195280066300139e+01  -1.7956234366224994e+01  -1.7715420534226425e+01  -1.7472554102347161e+01  -1.7229009067365638e+01  -1.6983855747677769e+01  -1.6737884744466065e+01  -1.6490404018849521e+01  -1.6240776796995863e+01  -1.5985699645356885e+01  -1.5736026101488918e+01  -1.5476266945624262e+01  -1.5218752353857505e+01  -1.4959261837753292e+01  -1.4695620999133975e+01  -1.4430964299187197e+01  -1.4162211623174636e+01  -1.3897695264525359e+01  -1.3622656772663099e+01  -1.3347744283544124e+01  -1.3069071816312862e+01  -1.2784977213197648e+01  -1.2502055090938009e+01  -1.2217815001613062e+01  -1.1930453633086605e+01  -1.1638393394780106e+01  -1.1345260683952990e+01  -1.1048780357797369e+01  -1.0750609039392430e+01  -1.0448707166961643e+01  -1.0144556833281074e+01  -9.8377906913717066e+00  -9.5282431479936189e+00  -9.2153668465719694e+00  -8.8999362830247470e+00  -8.5816914407334437e+00  -8.2612281530700873e+00  -7.9360815841393864e+00  -7.6082237633806438e+00  -7.2791562933671701e+00  -6.9460178604186851e+00  -6.6038136887817265e+00  -6.2716117180505959e+00  -5.9219858625167126e+00  -5.5831464277932987e+00  -5.2340935411128484e+00  -4.8750283040203222e+00  -4.5281405257817333e+00  -4.1622730967829309e+00  -3.8045757105734315e+00  -3.4411667899578213e+00  -3.0732435770319837e+00  -2.6926103025498329e+00  -2.3244141950747546e+00  -1.9438959844003034e+00  -1.5628660488379920e+00  -1.1838789606637388e+00  -7.8339563579775240e-01  -3.9701882068515454e-01  0.0000000000000000e+00  0.0000000000000000e+00  0.0000000000000000e+00  0.0000000000000000e+00  0.0000000000000000e+00  0.0000000000000000e+00  0.0000000000000000e+00  0.0000000000000000e+00  0.0000000000000000e+00  -4.0242777415659908e-01  -8.0536303433967760e-01  -1.1931601060497450e+00  -1.5901086382036285e+00  -1.9858110170811081e+00  -2.3806457574085971e+00  -2.7730290794397927e+00  -3.1640794826425247e+00  -3.5539366568716195e+00  -3.9426245335507408e+00  -4.3299151238263782e+00  -4.7162214827893587e+00  -5.1014851364724620e+00  -5.4854408385396791e+00  -5.8682089449817774e+00  -6.2494818800323673e+00  -6.6296107903722712e+00  -7.0089549697415388e+00  -7.3870490929316865e+00  -7.7639886428769813e+00  -8.1395839347013350e+00  -8.5141921689040689e+00  -8.8877950972302830e+00  -9.2605792924918280e+00  -9.6297804791281738e+00  -9.9998787793510271e+00  -1.0369457551374888e+01  -1.0737523312466639e+01  -1.1106822401360239e+01  -1.1474392955464502e+01  -1.1839454967650131e+01  -1.2201900970257842e+01  -1.2560505360309090e+01  -1.2925921606560440e+01  -1.3286478481377689e+01  -1.3650499901697092e+01  -1.4005357618425686e+01  -1.4365979036064140e+01  -1.4725648790759312e+01  -1.5077506541474149e+01  -1.5441523739444371e+01  -1.5794606368318062e+01  -1.6148355359830536e+01  -1.6501266458476980e+01  -1.6852769037261908e+01  -1.7201955071088975e+01  -1.7552085516887679e+01  -1.7899850959283075e+01  -1.8240391214768426e+01  -1.8580843800905328e+01  -1.8920914876037155e+01  -1.9262536459841559e+01  -1.9591528941308194e+01  -1.9929543849101865e+01  -2.0267124606119381e+01  -2.0603950355599824e+01  -2.0940490207173340e+01  -2.1278764677764379e+01  -2.1616980211059147e+01  -2.1954944518209579e+01  -2.2292380140843282e+01  -2.2630925247704624e+01  -2.2963304062954553e+01  -2.3294932764932000e+01  -2.3624022418153739e+01  -2.3953699625634847e+01  -2.4277139936448435e+01  -2.4598636179607755e+01  -2.4916054693970928e+01  -2.5227628303772455e+01  -2.5531946306519938e+01  -2.5819400294963973e+01  -2.6096611929374959e+01  -2.6353643662765112e+01  -2.6589229880748228e+01  -2.6790639508996549e+01  -2.6965735433934348e+01  -2.7106236752004669e+01  -2.7222397829322418e+01  -2.7310556197861889e+01  -2.7375387194191706e+01  -2.7422469361128066e+01  -2.7455285588514638e+01  -2.7477608727155211e+01  -2.7491763773699510e+01  -2.7499994842726363e+01  -2.7503709600668650e+01  -2.7504715717274923e+01  -2.7503508836720144e+01  -2.7500817437966251e+01  -2.7497046621242497e+01  -2.7492486936535343e+01  -2.7487416494995863e+01  -2.7481957220662295e+01  -2.7476221952415294e+01  -2.7470292689064927e+01  -2.7464252730039224e+01  -2.7458102242473842e+01  -2.7451894941586907e+01  -2.7445643955011029e+01  -2.7439372248457950e+01  -2.7433084685959763e+01  -2.7426791948485384e+01  -2.7420500321235266e+01  -2.7414214463557688e+01  -2.7407938073058173e+01  -2.7401672560814664e+01  -2.7395421752676132e+01  -2.7389185321318905e+01  -2.7382966080337034e+01  -2.7376763590011127e+01  -2.7370579054300833e+01  -2.7364413119166191e+01  -2.7358265646746911e+01  -2.7352137250781926e+01  -2.7346028038100098e+01  -2.7339938148885985e+01  -2.7333867684197365e+01  -2.7327816703725080e+01  -2.7321785266475892e+01  -2.7315773429563571e+01  -2.7309781325173997e+01  -2.7309782404076877e+01  -2.7309785029167923e+01  -2.7309789071534617e+01  -2.7309793971685888e+01  -2.7309798864836150e+01  -2.7309802921016928e+01  -2.7309805527891914e+01  -2.7309806610260903e+01  -2.5214785742661469e+01  -2.8016073701096950e+01  -2.9460244228291717e+01  -2.8414753063044373e+01  -2.9745839377859454e+01  -2.8070188791322320e+01  -2.7875413711516938e+01  -2.7753872568581926e+01  -2.7671983558652105e+01  -2.7619196048715509e+01  -2.7586810077272130e+01  -2.7561886332847415e+01  -2.7542098141875417e+01  -2.7525181865656375e+01  -2.7509940895557467e+01  -2.7495911850298437e+01  -2.7481818701388878e+01  -2.4387183540258846e+01  -2.3516311952916862e+01  -2.2666758375050971e+01  -2.1817881894423660e+01  -2.0997696962061024e+01  -2.0140525863740805e+01  -2.9226961064656997e+01  -2.5393079924887395e+01  -1.9256368559601533e+01  -1.8351902159104835e+01  -1.7356173146773401e+01  -2.7039172855583818e+01  -1.6333916626176293e+01  -1.5379400129753362e+01  -2.7467889548304345e+01  -1.4298028318117943e+01  -2.4117186547314642e+01  -2.2793811860177250e+01  -1.3160474269713259e+01  -2.1442220092953349e+01  -2.7453053731158956e+01  -1.9805005019187238e+01  -1.2090345983824905e+01  -2.7438739242522320e+01  -2.5798818907660426e+01  -1.0900096561459538e+01  -1.8064691456591245e+01  -2.6224044309523816e+01  -2.7422464071394181e+01  -9.6831071619451592e+00  -1.5971200876190176e+01  -2.7404632381451059e+01  -1.4922965585899089e+01  -8.4211108137371529e+00  -1.3803585778253048e+01  -2.7040310941128986e+01  -7.0734989608255221e+00  -2.7386738992076221e+01  -1.2735834947843269e+01  -2.7352026549427482e+01  -2.7473234906200148e+01  -1.1646092434356813e+01  -5.7622977076414275e+00  -2.7366826239434328e+01  -2.7352016349418363e+01  -1.7029171363493475e+01  -4.7045493374556902e+00  -3.5834177039767252e+00  -2.7505457743014944e+01  -1.0544120912755915e+01  -9.0486576105056695e+00  -2.7499219510554571e+01  -2.8808102541835744e+01  -2.9848176928234288e+01  -2.7484970003882147e+01  -7.9488869745669266e+00  -2.5279363663250445e+00  -2.7462045463257539e+01  -6.4398419103911948e+00  -2.7430117148631865e+01  -5.2950502371699093e+00  -2.7398547453681065e+01  -4.1399706162216132e+00  -2.7379966425453958e+01  -2.7343113608369993e+01  -2.7361194155920774e+01  -2.9695282422286033e+00  -2.7314838220654689e+01  -3.6806780630904362e-01  -2.7335496029222924e+01  -2.6599187109569737e+01  -1.8248019737488432e+00  -1.3413752382436563e+00  -2.7418953580468667e+01  -2.6145227711309182e+01  -2.6684584130245540e+01  -2.4769051399172451e+01  -2.7497880116610226e+01  -2.7473294511969513e+01  -2.7449088906097199e+01  -2.7416625126663213e+01  -1.9087754855990212e+01  -2.0762038533479373e+01  -2.2092136634264847e+01  -2.3461031009590450e+01  -2.7377190904624111e+01  -2.7395899526533054e+01  -9.8151213883846662e+00  -7.1993698774785635e+00  -2.7413131360530148e+01  -6.4563288801926326e+00  -2.7330938848960201e+01  -7.7554654091933415e+00  -9.0577996798278484e+00  -2.7430460088617522e+01  -1.0297043263772526e+01  -2.7314864322415438e+01  -1.1500501079377207e+01  -2.7445666140704454e+01  -1.2685793774755934e+01  -1.3726137055782699e+01  -1.9710697094787875e+01  -1.4853245674787974e+01  -2.7460737140019582e+01  -1.5861210714190102e+01  -1.6861291193721041e+01  -1.7848653038927875e+01  -2.7474961555748880e+01  -1.8778454296573358e+01  -3.1140152745417976e-01  -2.7488768009059783e+01  -2.7502813409374557e+01  -2.7517684262070670e+01  -2.7532808740041631e+01  -2.7552004134001269e+01  -2.7573970466392719e+01  -2.7602721034075046e+01  -2.7649284009673430e+01  -2.4801148610952932e+01  -2.7717926865658743e+01  -2.7820555353061017e+01  -2.7980015259193532e+01  -2.3954737963707398e+01  -2.8238445447645788e+01  -2.2250685752115267e+01  -2.3070063294907811e+01  -2.1442917878911153e+01  -2.0578939048774028e+01  -2.7314449493283838e+01  -2.9527952655944642e+01  -3.7219276063521090e-01  -2.7324456773709166e+01  -9.9567542463042480e-01  -2.6357019480190250e+01  -3.1132752058262181e-01  -2.7314304893510304e+01  -2.6266508538534023e+01  -2.6241050543603620e+01  -2.6120723882878789e+01  -2.6222173351243267e+01  -2.6098851180347058e+01  -2.6204271625313822e+01  -2.6066903514565787e+01  -2.6181881545134324e+01  -2.6034070259977227e+01  -2.6151026148240522e+01  -2.5992224209263270e+01  -2.6113987643780085e+01  -2.5940218179309444e+01  -2.6065099670703841e+01  -2.5879460640551251e+01  -2.6004918664401952e+01  -2.5807170432435164e+01  -2.5936012259533165e+01  -2.5730993867854732e+01  -2.5855467108981848e+01  -2.5643020946503057e+01  -2.6087696423005109e+01  -2.5506576535963717e+01  -2.5421426800930295e+01  -2.5987514884677100e+01  -2.6237308387987920e+01  -2.5281077810405918e+01  -2.5188111207049236e+01  -2.5066808633967216e+01  -2.4956285197512273e+01  -2.4831122789040521e+01  -2.4721246634836213e+01  -2.4591453764446733e+01  -2.4488632999578339e+01  -2.4344624790478466e+01  -2.4246365779865233e+01  -2.4089149429690391e+01  -2.3971395805918579e+01  -2.3825646186551399e+01  -2.3716032164533800e+01  -2.3563324899036939e+01  -2.3441665551993960e+01  -2.3297270169356235e+01  -2.3186639677970575e+01  -2.3035834487749781e+01  -2.2926497566401167e+01  -2.2774151786613064e+01  -2.2672052403259862e+01  -2.2515319015383316e+01  -2.2411590087354295e+01  -2.2259424254076674e+01  -2.6113058081059684e+01  -2.6356390307221655e+01  -2.2147327873692557e+01  -2.1986081221776342e+01  -2.1885316419777244e+01  -2.1730920723072121e+01  -2.1629121028976371e+01  -2.1483969781429806e+01  -2.1368992173229870e+01  -2.1227614967569906e+01  -2.1105960486029847e+01  -2.0965673624425929e+01  -2.5324114619999335e+01  -2.0840192761695505e+01  -2.0698839569552884e+01  -2.0570629868319514e+01  -2.0427995869559219e+01  -2.0298007091744847e+01  -2.0153391657746425e+01  -2.6229913481393211e+01  -2.6467000376466160e+01  -2.6257836121745274e+01  -2.0020982875752537e+01  -1.9872924563118715e+01  -2.6504856925907415e+01  -1.9739876780746183e+01  -1.9588954030680551e+01  -1.9456628621499295e+01  -1.9302933873373764e+01  -1.9171243789811289e+01  -1.9013466343111638e+01  -2.4643164373254496e+01  -1.8885590366072101e+01  -1.8723231610403392e+01  -1.8596000452266310e+01  -1.8431555389202558e+01  -1.8305740046103416e+01  -1.8138899137709910e+01  -2.5756454641776333e+01  -2.3861481653746335e+01  -1.8014186512790499e+01  -1.7845987754920344e+01  -2.6334136076391495e+01  -2.6593290050429925e+01  -2.6099450292316053e+01  -2.3076685142189454e+01  -1.7722708707508183e+01  -1.7546027987314698e+01  -1.7427041536113325e+01  -1.7245801913128663e+01  -1.7129055161527706e+01  -1.6952083736182935e+01  -2.0002789661546707e+01  -1.7662809882524204e+01  -1.9146160216052028e+01  -2.0823237860868776e+01  -1.6831058428217148e+01  -1.6657002694142715e+01  -1.6779666771184921e+01  -1.6488415742476711e+01  -1.6360287833970023e+01  -1.6197321054471750e+01  -1.6062128389029269e+01  -1.5897774672907238e+01  -1.5761034268712969e+01  -1.5592129652749531e+01  -1.5457897623931165e+01  -1.5288047648507515e+01  -1.5152715897928186e+01  -1.4982574734035788e+01  -1.4846552757470597e+01  -1.4675093298272659e+01  -1.4536752119947250e+01  -1.4365257844214366e+01  -1.4225385194730496e+01  -1.4052233685045241e+01  -1.3911815737670612e+01  -1.3738399552149115e+01  -1.3596883454218291e+01  -1.3421700240065254e+01  -2.1587440346045771e+01  -2.2294546254294019e+01  -1.3279295408306441e+01  -1.3104253345385960e+01  -1.2959256783603930e+01  -1.2782488355771225e+01  -2.4699715030058368e+01  -1.2633711740564403e+01  -1.2458780598124818e+01  -2.2890103411546171e+01  -2.3680289731760347e+01  -2.6417516475727894e+01  -2.6622817184467422e+01  -2.6832111221147013e+01  -2.6870394367120781e+01  -2.7061175147126665e+01  -2.7077147501142743e+01  -2.7263148858988345e+01  -2.7249334967676980e+01  -2.7433627642198385e+01  -2.7387338010641244e+01  -2.7566949934483603e+01  -2.7488096389382072e+01  -2.7659338117239137e+01  -2.7569921067208210e+01  -2.7740458969622786e+01  -2.7638837004505902e+01  -2.7757311830477665e+01  -2.7657243684983474e+01  -2.7767253827846314e+01  -2.7690295189664834e+01  -2.7768642442013547e+01  -2.7696358335873832e+01  -2.7759591576400467e+01  -2.7694629102327735e+01  -2.7744401947910116e+01  -2.7687754511157021e+01  -2.7727738243347879e+01  -2.7678775373090730e+01  -2.7625301724677215e+01  -2.7639375246392316e+01  -2.7636028438053426e+01  -2.7667727116385823e+01  -2.7630791747442988e+01  -2.7655830762455764e+01  -2.7624249553795437e+01  -2.7643841024698894e+01  -2.7617016962966435e+01  -2.7600256335205817e+01  -2.7636809722811041e+01  -2.7609564253187923e+01  -2.7621917399510686e+01  -2.7601161456519293e+01  -2.7588023421371137e+01  -2.7582792574852984e+01  -2.7593221701200058e+01  -2.7577437035042330e+01  -2.7585006128586738e+01  -2.7571731974070804e+01  -2.7254877418179376e+01  -2.7577080403596337e+01  -2.7566018932677085e+01  -2.7559190051307265e+01  -2.7555109065695262e+01  -2.7560529293389614e+01  -2.7550858409599016e+01  -2.7555017059592945e+01  -2.7546352082215392e+01  -2.7829797665313617e+01  -2.7521640319001630e+01  -2.7640166468352596e+01  -2.7860537704492348e+01  -2.7550133232995865e+01  -2.7541825691339451e+01  -2.7538364010924493e+01  -2.7534528191574800e+01  -2.7537209035831676e+01  -2.7530563572584146e+01  -2.7532538610895909e+01  -2.7526458626999343e+01  -2.7524424353709573e+01  -2.7520852933268518e+01  -2.7522219197896597e+01  -2.7517040325508635e+01  -2.7569604530463810e+01  -2.7517909760387493e+01  -2.7513118819148772e+01  -2.7838234106053871e+01  -2.7209808355850225e+01  -2.7548229448107243e+01  -2.7785144626795176e+01  -2.7513652660911259e+01  -2.7509007608817072e+01  -2.7508737294382804e+01  -2.7504575710745950e+01  -2.7504956374179784e+01  -2.7500545488957894e+01  -2.7500187074051148e+01  -2.7496311210345784e+01  -2.7496460159554406e+01  -2.7492359277303187e+01  -2.7675275068340405e+01  -2.7492343483818789e+01  -2.7488279972639081e+01  -2.7518773990181060e+01  -2.7597473752880301e+01  -2.1510707549343699e+01  -2.7643999699181514e+01  -2.7488335147918512e+01  -2.7484318653206419e+01  -2.7484145235373663e+01  -2.7480252542331176e+01  -1.2309360184364403e+01  -1.2135348176510615e+01  -1.1986623431687558e+01  -1.1807312391179487e+01  -1.1658564187704775e+01  -1.1477034569415395e+01  -2.7479818747997573e+01  -2.7476033883520998e+01  -2.0163761789344985e+01  -2.7476372097616519e+01  -2.7472223347943764e+01  -2.7471939904479381e+01  -2.7468069608224152e+01  -2.6320694678902239e+01  -2.6745984801582900e+01  -2.7564754883139347e+01  -1.5118375366759206e+01  -1.1327649964820848e+01  -1.1147443079907889e+01  -1.6615702548083483e+01  -1.3572255339594514e+01  -1.1296602611843442e+01  -1.0968995993041215e+01  -1.0816952927544870e+01  -1.0638366102006460e+01  -1.0484865753606574e+01  -1.0304936104288862e+01  -1.0150932933628074e+01  -9.9745121710731794e+00  -9.8156415495081646e+00  -9.6384312327028763e+00  -9.4778531172568776e+00  -9.2955219243176526e+00  -9.1374494310760301e+00  -8.9535458962536936e+00  -8.7946590584162845e+00  -8.6098722875078177e+00  -8.453940588398994