<?xml version="1.0"?>
<VTKFile type="UnstructuredGrid"  version="0.1"  >
<UnstructuredGrid>
<Piece  NumberOfPoints="2705" NumberOfCells="5060">
<Points>
<DataArray  type="Float64"  NumberOfComponents="3"  format="ascii">0 0.1 0  0.98 0.1 0  1 0.1 0  1 0 0  3 0 0  3 0.3 0  0 0.3 0  0.01975375321854102 0.1 0  0.03918897458218897 0.1 0  0.05831079002627837 0.1 0  0.07712425666319796 0.1 0  0.0956343475259058 0.1 0  0.1138459546796227 0.1 0  0.1317638870668193 0.1 0  0.1493928840275937 0.1 0  0.1667376092280033 0.1 0  0.1838026357802664 0.1 0  0.2005924801287244 0.1 0  0.2171115811543574 0.1 0  0.2333643037107681 0.1 0  0.2493549444060462 0.1 0  0.2650877293306821 0.1 0  0.2805668058011438 0.1 0  0.2957962848620976 0.1 0  0.3107801766802674 0.1 0  0.3255224447361181 0.1 0  0.3400269848175519 0.1 0  0.3542976327080778 0.1 0  0.3683381609158136 0.1 0  0.3821522744564845 0.1 0  0.3957436316838916 0.1 0  0.4091158196437086 0.1 0  0.4222723742184605 0.1 0  0.4352167733293057 0.1 0  0.4479524348643424 0.1 0  0.4604827295467524 0.1 0  0.4728109659990664 0.1 0  0.4849404035409129 0.1 0  0.4968742471455402 0.1 0  0.508615651843175 0.1 0  0.520167721130924 0.1 0  0.5315335063628542 0.1 0  0.5427160117228604 0.1 0  0.5537181940261912 0.1 0  0.564542961924507 0.1 0  0.575193173270606 0.1 0  0.5856716438765114 0.1 0  0.5959811458006617 0.1 0  0.6061243988680743 0.1 0  0.6161040893285659 0.1 0  0.6259228503970299 0.1 0  0.6355832809287655 0.1 0  0.6450879281079505 0.1 0  0.6544393102991295 0.1 0  0.663639896558931 0.1 0  0.6726921201956305 0.1 0  0.6815983691630338 0.1 0  0.6903610031396646 0.1 0  0.6989823343332418 0.1 0  0.7074646404270378 0.1 0  0.7158101645005117 0.1 0  0.7240211149852543 0.1 0  0.7320996585612525 0.1 0  0.7400479319727645 0.1 0  0.7478680336617921 0.1 0  0.755562036504958 0.1 0  0.7631319665092091 0.1 0  0.7705798279317605 0.1 0  0.777907588066146 0.1 0  0.7851171851013118 0.1 0  0.7922105226004981 0.1 0  0.7991894774550319 0.1 0  0.8060558928136696 0.1 0  0.812811583201334 0.1 0  0.8194583352091183 0.1 0  0.8259979035038147 0.1 0  0.8324320194413813 0.1 0  0.8387623808293405 0.1 0  0.8449906627004957 0.1 0  0.8511185094880469 0.1 0  0.8571475426008311 0.1 0  0.8630793533568246 0.1 0  0.8689155114558531 0.1 0  0.8746575581239063 0.1 0  0.8803070109173519 0.1 0  0.885865363938836 0.1 0  0.8913340851680313 0.1 0  0.8967146206523592 0.1 0  0.9020083930695622 0.1 0  0.9072167995950768 0.1 0  0.9123412183131177 0.1 0  0.9173830029719022 0.1 0  0.9223434865647732 0.1 0  0.9272239785872722 0.1 0  0.9320257720706087 0.1 0  0.9367501330378739 0.1 0  0.9413983102716995 0.1 0  0.9459715351562933 0.1 0  0.9504710127113115 0.1 0  0.9548979346500661 0.1 0  0.9592534708344373 0.1 0  0.9635387708980176 0.1 0  0.9677549682252325 0.1 0  0.971903177251235 0.1 0  0.9759844952956497 0.1 0  0.9840000000000086 0.1 0  0.987999999999974 0.1 0  0.9919999999999393 0.1 0  0.9959999999999913 0.1 0  1 0.09591793123533533 0  1 0.09133596463859224 0  1 0.08619288104391448 0  1 0.08041996484521211 0  1 0.07394008421771697 0  1 0.06666666567302955 0  1 0.05850252932209174 0  1 0.04933859630113544 0  1 0.03905242821848202 0  1 0.02750659386753798 0  1 0.01454683679239736 0  1.016020550394751 0 0  1.032153385236268 0 0  1.048399294954455 0 0  1.064759072477566 0 0  1.081233515533994 0 0  1.097823427949778 0 0  1.114529617202262 0 0  1.131352900433151 0 0  1.148294101583001 0 0  1.165354040242892 0 0  1.182533552515274 0 0  1.199833475866261 0 0  1.217254652230041 0 0  1.234797936155386 0 0  1.252464178425587 0 0  1.270254255168802 0 0  1.288169006479837 0 0  1.306209325437119 0 0  1.324376095845444 0 0  1.342670189274758 0 0  1.36109251192469 0 0  1.379643952662183 0 0  1.398325417002887 0 0  1.41713782425084 0 0  1.436082080652155 0 0  1.455159124826087 0 0  1.474369882349725 0 0  1.493715277083147 0 0  1.513196265767424 0 0  1.532813806019548 0 0  1.552568842185085 0 0  1.572462339217603 0 0  1.592495269056204 0 0  1.612668607023916 0 0  1.632983343549927 0 0  1.653440462592259 0 0  1.674040969525434 0 0  1.694785855791528 0 0  1.715676155173469 0 0  1.73671286736412 0 0  1.757897026351256 0 0  1.779229664888713 0 0  1.800711824755784 0 0  1.82234455324737 0 0  1.84412890624001 0 0  1.866065945376083 0 0  1.888156733760833 0 0  1.910402369606354 0 0  1.93280391688052 0 0  1.955362477143487 0 0  1.978079144436244 0 0  2.000955036197599 0 0  2.023991269446432 0 0  2.047188964767926 0 0  2.0705492490968 0 0  2.094073263768322 0 0  2.117762156205791 0 0  2.141617082624289 0 0  2.16563921705895 0 0  2.189829717267639 0 0  2.214189770072521 0 0  2.238720556051706 0 0  2.263423288009975 0 0  2.288299155588418 0 0  2.313349376228164 0 0  2.338575176964319 0 0  2.363977783618623 0 0  2.389558433680938 0 0  2.415318384393194 0 0  2.441258882154933 0 0  2.467381196024248 0 0  2.493686599690135 0 0  2.520176385407638 0 0  2.546851827526312 0 0  2.573714242586076 0 0  2.600764942577301 0 0  2.628005231328753 0 0  2.655436452882501 0 0  2.683059932630583 0 0  2.710877029970518 0 0  2.73888909859219 0 0  2.767097496229523 0 0  2.79550361535459 0 0  2.824108829114479 0 0  2.852914536031111 0 0  2.881922140827726 0 0  2.911133056443728 0 0  2.940548720418847 0 0  2.970170550362583 0 0  3 0.02999999999994495 0  3 0.05999999999987042 0  3 0.089999999999783 0  3 0.119999999999701 0  3 0.149999999999619 0  3 0.179999999999692 0  3 0.2099999999997737 0  3 0.2399999999998511 0  3 0.2699999999999185 0  2.970138294777171 0.3 0  2.940375666438236 0.3 0  2.910711782853056 0.3 0  2.881146331305122 0.3 0  2.851678975030285 0.3 0  2.822309388626621 0.3 0  2.793037250095074 0.3 0  2.76386223529133 0.3 0  2.734784017903872 0.3 0  2.705802289276642 0.3 0  2.676916713794697 0.3 0  2.648126987654635 0.3 0  2.619432780406184 0.3 0  2.590833779385199 0.3 0  2.562329669847737 0.3 0  2.533920134950189 0.3 0  2.505604855727852 0.3 0  2.477383539822502 0.3 0  2.449255847639465 0.3 0  2.421221492569094 0.3 0  2.393280152486815 0.3 0  2.36543151914496 0.3 0  2.337675285481809 0.3 0  2.310011142385583 0.3 0  2.282438797441587 0.3 0  2.254957931061538 0.3 0  2.227568248063605 0.3 0  2.200269436651085 0.3 0  2.173061204949961 0.3 0  2.145943251515011 0.3 0  2.118915272469994 0.3 0  2.091976978084957 0.3 0  2.065128060700849 0.3 0  2.038368218849433 0.3 0  2.01169717777258 0.3 0  1.985114624111908 0.3 0  1.958620267850966 0.3 0  1.93221382054972 0.3 0  1.905894991850698 0.3 0  1.879663489459713 0.3 0  1.853519019126419 0.3 0  1.827461291053897 0.3 0  1.801490031354372 0.3 0  1.775604937580312 0.3 0  1.74980572560258 0.3 0  1.724092118631866 0.3 0  1.698463829173586 0.3 0  1.672920575782554 0.3 0  1.647462076974085 0.3 0  1.622088043536933 0.3 0  1.5967981978949 0.3 0  1.571592267767068 0.3 0  1.546469970305736 0.3 0  1.521431023814044 0.3 0  1.496475156230927 0.3 0  1.471602093687753 0.3 0  1.446811560490646 0.3 0  1.422103279101731 0.3 0  1.397476971708191 0.3 0  1.37293238939876 0.3 0  1.348469231419202 0.3 0  1.324087248732772 0.3 0  1.299786165921677 0.3 0  1.275565710847046 0.3 0  1.251425617644257 0.3 0  1.227365618676339 0.3 0  1.203385446174014 0.3 0  1.179484853067473 0.3 0  1.155663548773374 0.3 0  1.131921292279077 0.3 0  1.108257802159295 0.3 0  1.084672829009693 0.3 0  1.061166115303374 0.3 0  1.037737392995421 0.3 0  1.01438640299116 0.3 0  0.991112899770314 0.3 0  0.9679166155523955 0.3 0  0.944797284182564 0.3 0  0.921754678526042 0.3 0  0.8987885143602501 0.3 0  0.8758985548820624 0.3 0  0.8530845484099929 0.3 0  0.8303462351786988 0.3 0  0.8076833651172373 0.3 0  0.7850956864865304 0.3 0  0.7625829601354557 0.3 0  0.7401449314598274 0.3 0  0.717781337993959 0.3 0  0.6954919649675473 0.3 0  0.6732765357561226 0.3 0  0.6511348120768439 0.3 0  0.6290665642016573 0.3 0  0.6070715355430467 0.3 0  0.5851494825775325 0.3 0  0.5633001690203812 0.3 0  0.5415233562273221 0.3 0  0.5198187909431873 0.3 0  0.4981862401387795 0.3 0  0.4766254686134248 0.3 0  0.4551362360485234 0.3 0  0.4337182975262159 0.3 0  0.4123714223228037 0.3 0  0.3910953802377493 0.3 0  0.3698899313205595 0.3 0  0.3487548463710963 0.3 0  0.3276898864081783 0.3 0  0.3066948129116018 0.3 0  0.2857694003037476 0.3 0  0.2649134227095047 0.3 0  0.2441266417321288 0.3 0  0.2234088223399122 0.3 0  0.2027597568977288 0.3 0  0.1821792020676698 0.3 0  0.1616669305402443 0.3 0  0.1412227158799362 0.3 0  0.12084633013886 0.3 0  0.1005375673448281 0.3 0  0.08029618164595353 0.3 0  0.06012194778526769 0.3 0  0.04001466495039718 0.3 0  0.01997408913631205 0.3 0  0 0.2800000000000553 0  0 0.2600000000001105 0  0 0.2400000000001658 0  0 0.2200000000002211 0  0 0.2000000000002764 0  0 0.1800000000002244 0  0 0.1600000000001691 0  0 0.140000000000115 0  0 0.1200000000000564 0  1.139147342155451 0.01402312796110374 0  1.003846432965526 0.09424410338552042 0  0.9779237415493457 0.10303715329271 0  0.9525322729471357 0.1037883113413676 0  0.9297268847131464 0.1045730213771781 0  0.9046089814431624 0.104336569409788 0  0.877471620806838 0.1038902524152954 0  0.8484650538876116 0.1052432520737866 0  0.8159640469246969 0.1059371394421246 0  0.7886638538509052 0.1060934813339016 0  0.7587098578963086 0.1078079872398564 0  0.7267218807318911 0.1066246423921731 0  0.6933049262001144 0.1065261986562333 0  0.6579684410383846 0.1078243939978959 0  0.6214208701021879 0.1087048760815267 0  0.9941749516486179 0.1037853116611355 0  1.120978489398116 0.279674477539142 0  1.208544064048151 0.01503467720016028 0  1.277910333952869 0.01779594515292307 0  1.351715717346224 0.01850593010538557 0  1.427966398080389 0.0186283585208804 0  1.50319238505989 0.01550695005010656 0  0.5804324085735586 0.1090014561521007 0  1.005955353234479 0.07030337494537306 0  1.582478804136902 0.01728864997636526 0  0.5372897138364388 0.1092087118973372 0  1.663740716058847 0.0177784735569346 0  0.4914692535170423 0.110729061919444 0  1.747243287282295 0.01944243088977818 0  1.238974330067154 0.2790657993464123 0  1.834291106016765 0.02121111407792533 0  0.44060840912
[...]
<PointData  Scalars="pressure"> 
<DataArray  type="Float64"  Name="pressure"  format="ascii">1.5446416300746965e-01  -1.6643329184958822e-01  -2.1152255053008528e-01  -1.5911816913113608e-01  0.0000000000000000e+00  0.0000000000000000e+00  1.5447233561326301e-01  1.4853803850866737e-01  1.4270739372986546e-01  1.3697066489843732e-01  1.3132631148191456e-01  1.2577283360983266e-01  1.2030875207299793e-01  1.1493257549008271e-01  1.0964293334716393e-01  1.0443832115318874e-01  9.9317413408222310e-02  9.4278825821660375e-02  8.9321116970171463e-02  8.4443016341743324e-02  7.9643199887016888e-02  7.4920292465334742e-02  7.0273072265348777e-02  6.5700259018739937e-02  6.1200455702918127e-02  5.6772574674225640e-02  5.2415294446866309e-02  4.8127319744731514e-02  4.3907598797955298e-02  3.9754762768217378e-02  3.5667724004376955e-02  3.1645281515907724e-02  2.7686201335960534e-02  2.3789324330682052e-02  1.9953513862741207e-02  1.6177613857242739e-02  1.2460480282425553e-02  8.8009033741340940e-03  5.1978521658890180e-03  1.6501125249997915e-03  -1.8434056893182622e-03  -5.2838356418863832e-03  -8.6723604884995815e-03  -1.2010006167848837e-02  -1.5297991715063906e-02  -1.8537285812646721e-02  -2.1729162433526673e-02  -2.4874587160858712e-02  -2.7974828487096672e-02  -3.1030814511277118e-02  -3.4043720055170111e-02  -3.7014803623647188e-02  -3.9945032556968123e-02  -4.2835452252412226e-02  -4.5687139250420124e-02  -4.8501556371828923e-02  -5.1279277340740018e-02  -5.4021470282088410e-02  -5.6730131695054115e-02  -5.9405546118279008e-02  -6.2047993876377508e-02  -6.4659953557627686e-02  -6.7243042494489563e-02  -6.9796361269085158e-02  -7.2321536056121960e-02  -7.4821214703263736e-02  -7.7295221020517377e-02  -7.9744180342766188e-02  -8.2169824371190511e-02  -8.4573427568326712e-02  -8.6955586839251489e-02  -8.9318098533477275e-02  -9.1661026252706376e-02  -9.3986058200225361e-02  -9.6294284269332786e-02  -9.8586522051176378e-02  -1.0086402229220971e-01  -1.0312745808603138e-01  -1.0537885621292351e-01  -1.0761786053873092e-01  -1.0984674747644932e-01  -1.1206683113848925e-01  -1.1427860324616029e-01  -1.1648219731287517e-01  -1.1867920012994115e-01  -1.2087284638640053e-01  -1.2306274162623937e-01  -1.2525004919244256e-01  -1.2743547928869164e-01  -1.2962240709804879e-01  -1.3180998789516793e-01  -1.3400063582213612e-01  -1.3619760701538799e-01  -1.3840084554828083e-01  -1.4061030538961589e-01  -1.4283577614964993e-01  -1.4506627865550722e-01  -1.4731983609159310e-01  -1.4958991532878071e-01  -1.5188418268815421e-01  -1.5420203119596251e-01  -1.5655471868497009e-01  -1.5894252361825578e-01  -1.6137655865717906e-01  -1.6386688051855630e-01  -1.6908888921050660e-01  -1.7181383809651346e-01  -1.7589206113175881e-01  -1.7033476468086742e-01  -1.9931726095471344e-01  -1.7990173367444506e-01  -1.7285894301487151e-01  -1.6818582551765471e-01  -1.6494656398576660e-01  -1.6253245415006207e-01  -1.6070219809660349e-01  -1.5935692949551647e-01  -1.5854451925460666e-01  -1.5833066894180003e-01  -1.5877383029629979e-01  -1.5953492850127240e-01  -1.5993030320220333e-01  -1.5965706776380625e-01  -1.5891400365440189e-01  -1.5771083931331750e-01  -1.5614711118578747e-01  -1.5415056205998540e-01  -1.5175129979128166e-01  -1.4893715684272704e-01  -1.4572355875408891e-01  -1.4211803445515478e-01  -1.3812948774644976e-01  -1.3376605806077932e-01  -1.2904503351815841e-01  -1.2397986958284710e-01  -1.1858186793807840e-01  -1.1286945154757888e-01  -1.0687261287830514e-01  -1.0061373281707418e-01  -9.4123514565413458e-02  -8.7427892627148923e-02  -8.0571689137785757e-02  -7.3596333121567895e-02  -6.6534442584735037e-02  -5.9437108639577164e-02  -5.2361493579243884e-02  -4.5350777498570354e-02  -3.8445698005316525e-02  -3.1706369111472524e-02  -2.5177739779285800e-02  -1.8900884213464759e-02  -1.2911129106426682e-02  -7.2540345017247541e-03  -1.9500598815014810e-03  2.9776516495073858e-03  7.5132229280674978e-03  1.1645704960772923e-02  1.5374457931014421e-02  1.8702479468564001e-02  2.1644823199240496e-02  2.4219937055938313e-02  2.6431194013624471e-02  2.8314990838873871e-02  2.9890424687716542e-02  3.1180433629595970e-02  3.2221921330067765e-02  3.3029914386659122e-02  3.3635770729834980e-02  3.4062125890518206e-02  3.4333899260059884e-02  3.4473786168370352e-02  3.4499799215628714e-02  3.4422709689230682e-02  3.4266838211616447e-02  3.4039063346833286e-02  3.3751159541458964e-02  3.3412809278464066e-02  3.3029992318997302e-02  3.2606598644962029e-02  3.2148424051337950e-02  3.1659757743035900e-02  3.1141286930073873e-02  3.0591884320438488e-02  3.0012924242135062e-02  2.9403114655880313e-02  2.8761394486969415e-02  2.8086552096590452e-02  2.7377015168382559e-02  2.6628850882660243e-02  2.5843954460979403e-02  2.5017454395143565e-02  2.4149321290502838e-02  2.3236435932569185e-02  2.2277638250724520e-02  2.1272757439641250e-02  2.0218206164092020e-02  1.9114182349203750e-02  1.7960603048510507e-02  1.6754197323048229e-02  1.5496140455053349e-02  1.4186606360191563e-02  1.2823048716324592e-02  1.1406487605092339e-02  9.9390483318545827e-03  8.4155129545488826e-03  6.8417163902851916e-03  5.2136439667230770e-03  3.5353056826821962e-03  1.7994612990074631e-03  0.0000000000000000e+00  0.0000000000000000e+00  0.0000000000000000e+00  0.0000000000000000e+00  0.0000000000000000e+00  0.0000000000000000e+00  0.0000000000000000e+00  0.0000000000000000e+00  0.0000000000000000e+00  1.8976444240225879e-03  3.6678220733853588e-03  5.4037194585798975e-03  7.0975085104606692e-03  8.7460967096233220e-03  1.0348429841810902e-02  1.1904637917488107e-02  1.3411902716853023e-02  1.4864343311894514e-02  1.6264374336381289e-02  1.7603409674351915e-02  1.8881893356420071e-02  2.0093626642809424e-02  2.1234818454869311e-02  2.2301624681228566e-02  2.3289329169041327e-02  2.4191577241805543e-02  2.5004557524480615e-02  2.5721709837962785e-02  2.6335201869419986e-02  2.6841670606269220e-02  2.7232253459476604e-02  2.7501797600443526e-02  2.7643075049557951e-02  2.7649668987714576e-02  2.7513128455226268e-02  2.7228112039807639e-02  2.6789012456710420e-02  2.6187036904188117e-02  2.5420491324785032e-02  2.4480800592894640e-02  2.3364888092907314e-02  2.2069903705424044e-02  2.0592326393248143e-02  1.8928615945198249e-02  1.7076770035829792e-02  1.5036002315526957e-02  1.2806685378602021e-02  1.0386953152808976e-02  7.7801745421922164e-03  4.9786689861414596e-03  1.9876622000950441e-03  -1.1757280349394240e-03  -4.5280558437754762e-03  -8.0684165636213424e-03  -1.1793020511562030e-02  -1.5691973107254908e-02  -1.9768111700099452e-02  -2.4018042335496089e-02  -2.8435317926840196e-02  -3.3014490414380225e-02  -3.7746101426961415e-02  -4.2619482233968241e-02  -4.7625540802688528e-02  -5.2748385393363836e-02  -5.7983805753031567e-02  -6.3259282281581286e-02  -6.8596971202475765e-02  -7.3949416848382493e-02  -7.9263434081511694e-02  -8.4522846530373272e-02  -8.9653147887358439e-02  -9.4638372874431803e-02  -9.9409183278361693e-02  -1.0389797213311652e-01  -1.0806685020380387e-01  -1.1185290488409561e-01  -1.1520225183735947e-01  -1.1804852921160434e-01  -1.2032611888102811e-01  -1.2198221228376165e-01  -1.2288966586816299e-01  -1.2313450897767503e-01  -1.2265904121553522e-01  -1.2154921013741707e-01  -1.1944566147157920e-01  -1.1678921679130912e-01  -1.1339011113094959e-01  -1.0943918322409683e-01  -1.0495634556707546e-01  -1.0007943729728705e-01  -9.4811391074800216e-02  -8.9299698687657830e-02  -8.3557201502817355e-02  -7.7607823149422647e-02  -7.1532019337408784e-02  -6.5346435360340349e-02  -5.9076357077108593e-02  -5.2735299027764568e-02  -4.6351409993153618e-02  -3.9934511057725518e-02  -3.3496121658547935e-02  -2.7042503096080500e-02  -2.0583892271052215e-02  -1.4122585883657472e-02  -7.6660722983877142e-03  -1.2170466192017297e-03  5.2234087516917970e-03  1.1651763806480730e-02  1.8065828895004989e-02  2.4464850846207791e-02  3.0848151091702233e-02  3.7213753220245713e-02  4.3561384297582495e-02  4.9890651786164024e-02  5.6201085662537127e-02  6.2492310003216173e-02  6.8763841350056365e-02  7.5015826456396803e-02  8.1247957724695813e-02  8.7460118438674753e-02  9.3652278802217395e-02  9.9824379649611383e-02  1.0597643457102557e-01  1.1210843744136809e-01  1.1822034743041759e-01  1.2431224423401764e-01  1.3038413117634093e-01  1.3643604166957660e-01  1.4246802172009068e-01  1.4848010970437298e-01  1.5447231403874082e-01  1.5447197586809253e-01  1.5447114292996592e-01  1.5446983357618385e-01  1.5446824988315355e-01  1.5446666393573899e-01  1.5446535914022244e-01  1.5446452123551593e-01  1.5446418635387382e-01  -1.5020124142134797e-01  -1.8472354811816982e-01  -1.6538755346259565e-01  -1.5082148691563363e-01  -1.3968761249468653e-01  -1.2861714855716591e-01  -1.1763484507397801e-01  -1.0670434425280913e-01  -9.5125442529110399e-02  -8.5798911289472826e-02  -7.5880414970862384e-02  -6.5542847213341943e-02  -5.4960287813421306e-02  -4.3940348324827135e-02  -3.2670760573954627e-02  -1.7928181669610363e-01  -1.2050466841484328e-01  -1.3586011129390743e-01  -1.1620519474749892e-01  -9.1072996749792967e-02  -6.2857722581134437e-02  -3.5560467732924442e-02  -2.0138843467777643e-02  -1.6426682143976731e-01  -1.0562245984118198e-02  -7.0317928472357037e-03  9.1164125191917997e-03  6.8270947196586518e-03  2.2496129201643917e-02  -1.0539268807527745e-01  3.0228999720755764e-02  2.2163730230644364e-02  -7.6142441210010584e-02  3.3605478846470374e-02  -1.5628330017453060e-01  -1.2248145481743551e-01  3.7215492907089191e-02  3.4295965619699408e-02  -4.4628367435230104e-02  3.3465823570030077e-02  5.4491941623202610e-02  -2.6234664553833123e-02  3.1836304219444382e-02  -3.2819530175431330e-03  7.2256099805641155e-02  -1.1783726226755344e-01  2.9660455388596154e-02  6.3177892624651545e-03  -1.0725946839158158e-01  2.6993325337278107e-02  -9.2025184391099080e-02  1.6005131201651330e-02  9.2230893617933685e-02  1.0707721790421937e-01  2.1208778526293250e-02  -9.1544219181717165e-02  -6.0018624288091439e-02  2.3704412363973481e-02  -1.3306891686553961e-02  2.0776766368503733e-02  -7.4945710049352535e-02  -1.5755819319737535e-01  2.5715608618220000e-02  -4.9577125244255449e-02  2.7274868257547026e-02  1.7390319353130228e-02  1.2328877521222481e-01  -3.0552125594719065e-02  2.7274795866156564e-02  1.3543009409017882e-02  -1.0493829098265002e-02  9.2065849990408313e-03  2.5916906877940349e-02  1.4629663861236283e-02  2.2717816574059260e-02  4.6603653017347105e-02  1.9421248232849988e-02  6.6224884771794085e-02  8.4354200112638361e-02  1.5510213458598487e-02  1.1000190813017582e-02  1.1573707775035595e-01  1.3985741012494453e-03  1.4948251616816993e-01  -1.5953270684379384e-01  6.1597483525537853e-03  1.3341011294683908e-01  -1.7064911597032117e-01  -1.5876311306546803e-01  -1.1610027461618877e-01  -6.2131835504034727e-02  2.0059393025364867e-03  -1.4375497368554643e-01  2.7306032066337655e-02  1.3413818703027064e-01  8.2090927623523893e-02  -3.5148611234438611e-02  6.3940002087445560e-02  9.6989646484405501e-02  1.1541122781035138e-02  2.3834692627898911e-02  6.0118767585223293e-03  4.6076466894349362e-02  2.7548890612884652e-02  2.4516834930355298e-02  2.5423839364011942e-02  2.9454895414246746e-02  2.8382905513749630e-02  3.0810163610068192e-02  3.2728163958682957e-02  3.4013341233824282e-02  3.4198688508116838e-02  1.4159832920710552e-02  3.2338211745871051e-02  2.6994267434578990e-02  1.6416704802092435e-02  4.2529349545444956e-05  -1.4474775934599299e-04  -2.2496072139164353e-02  -4.9233613988872875e-02  -7.7258232995689125e-02  -1.0413836849948868e-01  1.4426807838255290e-03  -1.2649239632396672e-01  -1.3658636964626058e-02  -2.6431438716087524e-02  1.4906173240671189e-01  -3.8806649595131429e-02  -5.0040712554926182e-02  -6.1120705772924805e-02  -7.1215175252249366e-02  -8.0944769606054637e-02  -9.0526969735000823e-02  -1.0210873232759847e-01  -1.1325651584285168e-01  -1.2424323806661491e-01  -1.3540858399977129e-01  -1.4637267053956704e-01  -1.7109742136103440e-01  1.4443353460780973e-03  1.4959278934788439e-01  -1.5930755526105767e-01  1.5019904771312778e-01  1.5124082631874820e-03  2.7388541094279088e-03  1.4539817886483145e-01  -1.5923222259763581e-01  -1.5893314949339027e-01  -1.5833304641071538e-01  -1.5892572955458673e-01  -1.5831782326110719e-01  -1.5926872536433684e-01  -1.5855013105606955e-01  -1.5966756442343158e-01  -1.5879466984631341e-01  -1.5988184764962934e-01  -1.5878427752003857e-01  -1.5959355033382516e-01  -1.5830915224730890e-01  -1.5875674382900529e-01  -1.5730666453866021e-01  -1.5742846024889856e-01  -1.5582755835380252e-01  -1.5573209042629532e-01  -1.5389229091369039e-01  -1.5728686125798905e-01  -1.5521654351582292e-01  -1.5693742777557423e-01  -1.5410726685006360e-01  -1.5590906910951097e-01  -1.5390882320693450e-01  -1.5167671503167812e-01  -1.5218189822684441e-01  -1.5403100396072453e-01  -1.5159291051205512e-01  -1.4907609133350030e-01  -1.4853500031212113e-01  -1.4561384606262118e-01  -1.4608110656905821e-01  -1.4233101219124369e-01  -1.4253069187794901e-01  -1.3850343261294024e-01  -1.3855309256986820e-01  -1.3429832350561541e-01  -1.3404487218799988e-01  -1.2955140527441078e-01  -1.2909642042365918e-01  -1.2432480454668798e-01  -1.2369628924912114e-01  -1.1875667055335436e-01  -1.1783631088323354e-01  -1.1286582147231482e-01  -1.1164930061665425e-01  -1.0667128288998400e-01  -1.0511706087010302e-01  -1.0022749731950044e-01  -9.8307124200009935e-02  -9.3569076163939544e-02  -9.1306429184762117e-02  -8.6854808559462343e-02  -8.4139121213859344e-02  -8.0149763313594996e-02  -7.6902863585982056e-02  -7.3236442674384492e-02  -6.9623350883695881e-02  -6.6203307786135784e-02  -6.2327616295984975e-02  -5.9426621022766496e-02  -5.5124759733080057e-02  -5.2826365504711335e-02  -1.4421717967025477e-01  -4.8136710989231807e-02  -4.6434604828058203e-02  -4.1380024968484183e-02  -4.0048790522189938e-02  -1.6071804355562341e-01  -3.4844564751617950e-02  -3.4029319499876316e-02  -2.8637745369562692e-02  -2.8605231721814877e-02  -2.2854077482332435e-02  -2.3540240253109218e-02  -1.7435845741983157e-02  -1.8701462540594852e-02  -1.2379931271537501e-02  -1.4233630732819115e-02  -7.7228831560430004e-03  -1.4935704516523998e-01  -1.5120547943505519e-01  -1.5585363246144729e-01  -1.5274356596488281e-01  -1.0469328364664569e-02  -3.5181896968321841e-03  -6.1398094344643399e-03  3.4037530603998022e-04  -2.6332833577671576e-03  3.8416029935437793e-03  -1.3325741384790790e-01  -1.5752273951191237e-01  -1.5393546175914813e-01  -1.4866637676505773e-01  -1.4945271044581723e-01  -1.5457462753141907e-01  -1.4958427257502660e-01  -1.5433769865940108e-01  -1.4893910280244999e-01  -1.5330685642354730e-01  -1.4756265337925331e-01  -1.5058279916612144e-01  -1.4534158461830268e-01  -1.4791783297482181e-01  -1.4263018080565404e-01  -1.3941125261901763e-01  -1.3726806230853947e-01  -1.4007661563267260e-01  -1.3447728552691152e-01  -1.3609698218591929e-01  -1.3125670617704571e-01  -1.3237110669282545e-01  -1.2791939428419638e-01  -1.2830228612364392e-01  -1.2448165268958376e-01  -1.2481262999822873e-01  -1.2088617641475889e-01  -1.2014336582817833e-01  -1.1684105328986499e-01  -1.1735613332691371e-01  -1.1330395016298582e-01  -1.1276703152710545e-01  -1.0927224652989830e-01  -1.0961907861846071e-01  -1.0587359881548793e-01  -1.0600817542627082e-01  -1.0240179206298032e-01  -1.0238060517494736e-01  -9.8877016068951454e-02  -1.3188717757465057e-01  -9.8734559792510626e-02  -9.5277619186938223e-02  -9.5348690618654128e-02  -9.1834439958039443e-02  -9.1611279949524158e-02  -8.8234542202431085e-02  -1.4395065303756582e-01  3.5585868457379714e-04  6.9176147911952932e-03  -8.8025311273235013e-02  -8.4687713159666375e-02  -9.1685424065732782e-02  -1.0551947375458590e-01  3.2654543607309825e-03  9.7126549808415827e-03  6.1851213097873781e-03  1.2237878653569985e-02  8.6064389181894733e-03  1.4474496332758680e-02  -8.4546868235788220e-02  -8.1136510898348849e-02  -8.1660451543932977e-02  -7.7740899953963161e-02  -7.7301625092228377e-02  -7.3884202235109164e-02  -7.4260932683137715e-02  -7.0506997157018650e-02  -7.0085018882354730e-02  -6.6763724981549755e-02  1.0959453242875533e-02  1.6469213730790522e-02  1.2911341022655981e-02  1.8226398580609905e-02  -1.1355070426634953e-01  -6.6341381207394912e-02  -6.2938567507648299e-02  1.4776080393424974e-02  1.9780535638814944e-02  -6.3352874984090021e-02  -5.9535300563870963e-02  -5.9102728879523808e-02  -5.5722794131593437e-02  1.6568321778252255e-02  2.1200087201849446e-02  1.8138014055703068e-02  2.2508552494667253e-02  -8.8722005049891417e-02  -1.5885596993471540e-01  -1.3722594891749140e-01  -1.5275652170207135e-01  1.9597855496546499e-02  2.3542591977672989e-02  2.0906712893923516e-02  2.4497496006408204e-02  2.2125907838637372e-02  2.5355377292931743e-02  -5.5367943091015871e-02  -5.1886889417078121e-02  -5.2258836577235804e-02  -4.8384702572495331e-02  -4.7904867165882173e-02  -4.4364319128656002e-02  -4.4829258018065095e-02  -4.0839301745093141e-02  -4.0397936073727214e-02  -3.6881157248869867e-02  -1.0611734332788229e-01  -1.2822228306892047e-01  2.3163809821801676e-02  2.6093242080444612e-02  2.4164010343840948e-02  2.6736130358840676e-02  -6.9878317618746397e-02  -1.5742197896223845e-01  -3.6572900652475544e-02  -3.2968407867135258e-02  -3.3218768610599803e-02  -2.9244665510884071e-02  -2.8948539933606812e-02  -2.5220184683381351e-02  -2.5404934653448168e-02  -2.1255560327756443e-02  -2.1190891236508979e-02  -1.7312550934801892e-02  -1.5966657109848817e-01  2.4985593051564767e-02  2.7274580913044549e-02  2.5772590953487773e-02  2.7765650462756943e-02  -4.4955896553930355e-02  -1.4197882782796456e-01  -1.6039662226055570e-01  -9.1245557849998993e-02  -1.4742388590958225e-01  -1.4378019396019029e-01  -1.4187152251904830e-01  2.6339142718623924e-02  2.8119395112025596e-02  2.6881561713372085e-02  2.8383061794266876e-02  2.7302499859633809e-02  2.8569291473683572e-02  -1.3774193581659325e-01  -1.3602510166946805e-01  -1.7450132178472872e-02  -1.3346804297396280e-02  -1.3278337641148089e-02  -9.2611804235717167e-03  -9.3393286844058992e-03  -5.1928895092514978e-03  -5.0424647069048150e-03  -1.0328260926445931e-03  2.7643032495050943e-02  2.8662644615110401e-02  -1.2190729832040630e-01  -6.9680809932239685e-02  -6.5969766506425817e-02  2.7903345179154146e-02  2.8695169897764029e-02  2.7928304808261254e-02  2.8595645216822691e-02  -7.3370066836639755e-02  -8.1749618820219701e-04  3.1838554454029326e-03  3.3607696758175326e-03  7.3956828358501345e-03  -2.9370736257781561e-02  -1.0267650986634484e-01  7.3172864367552484e-03  1.1532091095944065e-02  1.1607269363356959e-02  1.5826810848887655e-02  1.5901663656327673e-02  2.0131068810723483e-02  2.0001802322537239e-02  2.4486649544948100e-02  -9.0091123086064612e-03  2.4244268992742499e-02  2.8813392157424750e-02  -1.1298318670908690e-02  2.8039625128641336e-02  2.8472989980539085e-02  2.7950081150567317e-02  2.8237077997546961e-02  1.9557187751015153e-02  -4.3240970446285672e-02  1.5244507810859322e-02  -2.8816618691909039e-02  2.9702271517572345e-02  9.6343588466854726e-03  -4.0054367402777916e-02  -3.7133712696618904e-04  2.8913349721119183e-02  3.3256894069863117e-02  3.3239573130097413e-02  3.7727272894187550e-02  2.9416107930661101e-02  2.5829709844630002e-03  2.5659633210061115e-02  -8.8608144214272211e-02  2.8746312859212805e-02  2.9682436899036033e-02  -5.9015865809037331e-02  2.7806257842140636e-02  2.7929373912983300e-02  2.7538135584464152e-02  2.7541948552246332e-02  2.7195705952181216e-02  2.7074734603851579e-02  -1.3313867826221876e-01  2.7801926232718991e-02  2.3294474955745402e-02  2.9377307904125922e-02  -4.1154724349832555e-02  -5.9839266431714486e-02  -1.2493746587293560e-01  -1.2799709583362781e-01  -1.2464341306001432e-01  2.8830013607986718e-02  2.8025011120014674e-02  -1.3221941059553780e-01  -1.3044304896736300e-01  3.7508385313702153e-02  4.1962755155220584e-02  4.2312153589433597e-0