<?xml version="1.0"?>
<VTKFile type="UnstructuredGrid"  version="0.1"  >
<UnstructuredGrid>
<Piece  NumberOfPoints="2886" NumberOfCells="5412">
<Points>
<DataArray  type="Float64"  NumberOfComponents="3"  format="ascii">0 0.1 0  0.98 0.1 0  1 0.1 0  1 0 0  1.5 0 0  3 0 0  3 0.3 0  0 0.3 0  0.01975375321854102 0.1 0  0.03918897458218897 0.1 0  0.05831079002627837 0.1 0  0.07712425666319796 0.1 0  0.0956343475259058 0.1 0  0.1138459546796227 0.1 0  0.1317638870668193 0.1 0  0.1493928840275937 0.1 0  0.1667376092280033 0.1 0  0.1838026357802664 0.1 0  0.2005924801287244 0.1 0  0.2171115811543574 0.1 0  0.2333643037107681 0.1 0  0.2493549444060462 0.1 0  0.2650877293306821 0.1 0  0.2805668058011438 0.1 0  0.2957962848620976 0.1 0  0.3107801766802674 0.1 0  0.3255224447361181 0.1 0  0.3400269848175519 0.1 0  0.3542976327080778 0.1 0  0.3683381609158136 0.1 0  0.3821522744564845 0.1 0  0.3957436316838916 0.1 0  0.4091158196437086 0.1 0  0.4222723742184605 0.1 0  0.4352167733293057 0.1 0  0.4479524348643424 0.1 0  0.4604827295467524 0.1 0  0.4728109659990664 0.1 0  0.4849404035409129 0.1 0  0.4968742471455402 0.1 0  0.508615651843175 0.1 0  0.520167721130924 0.1 0  0.5315335063628542 0.1 0  0.5427160117228604 0.1 0  0.5537181940261912 0.1 0  0.564542961924507 0.1 0  0.575193173270606 0.1 0  0.5856716438765114 0.1 0  0.5959811458006617 0.1 0  0.6061243988680743 0.1 0  0.6161040893285659 0.1 0  0.6259228503970299 0.1 0  0.6355832809287655 0.1 0  0.6450879281079505 0.1 0  0.6544393102991295 0.1 0  0.663639896558931 0.1 0  0.6726921201956305 0.1 0  0.6815983691630338 0.1 0  0.6903610031396646 0.1 0  0.6989823343332418 0.1 0  0.7074646404270378 0.1 0  0.7158101645005117 0.1 0  0.7240211149852543 0.1 0  0.7320996585612525 0.1 0  0.7400479319727645 0.1 0  0.7478680336617921 0.1 0  0.755562036504958 0.1 0  0.7631319665092091 0.1 0  0.7705798279317605 0.1 0  0.777907588066146 0.1 0  0.7851171851013118 0.1 0  0.7922105226004981 0.1 0  0.7991894774550319 0.1 0  0.8060558928136696 0.1 0  0.812811583201334 0.1 0  0.8194583352091183 0.1 0  0.8259979035038147 0.1 0  0.8324320194413813 0.1 0  0.8387623808293405 0.1 0  0.8449906627004957 0.1 0  0.8511185094880469 0.1 0  0.8571475426008311 0.1 0  0.8630793533568246 0.1 0  0.8689155114558531 0.1 0  0.8746575581239063 0.1 0  0.8803070109173519 0.1 0  0.885865363938836 0.1 0  0.8913340851680313 0.1 0  0.8967146206523592 0.1 0  0.9020083930695622 0.1 0  0.9072167995950768 0.1 0  0.9123412183131177 0.1 0  0.9173830029719022 0.1 0  0.9223434865647732 0.1 0  0.9272239785872722 0.1 0  0.9320257720706087 0.1 0  0.9367501330378739 0.1 0  0.9413983102716995 0.1 0  0.9459715351562933 0.1 0  0.9504710127113115 0.1 0  0.9548979346500661 0.1 0  0.9592534708344373 0.1 0  0.9635387708980176 0.1 0  0.9677549682252325 0.1 0  0.971903177251235 0.1 0  0.9759844952956497 0.1 0  0.9840000000000086 0.1 0  0.987999999999974 0.1 0  0.9919999999999393 0.1 0  0.9959999999999913 0.1 0  1 0.09591793123533533 0  1 0.09133596463859224 0  1 0.08619288104391448 0  1 0.08041996484521211 0  1 0.07394008421771697 0  1 0.06666666567302955 0  1 0.05850252932209174 0  1 0.04933859630113544 0  1 0.03905242821848202 0  1 0.02750659386753798 0  1 0.01454683679239736 0  1.015625 0 0  1.03125 0 0  1.046875 0 0  1.0625 0 0  1.078125 0 0  1.09375 0 0  1.109375 0 0  1.125 0 0  1.140625 0 0  1.15625 0 0  1.171875 0 0  1.1875 0 0  1.203125 0 0  1.21875 0 0  1.234375 0 0  1.25 0 0  1.265625 0 0  1.28125 0 0  1.296875 0 0  1.3125 0 0  1.328125 0 0  1.34375 0 0  1.359375 0 0  1.375 0 0  1.390625 0 0  1.40625 0 0  1.421875 0 0  1.4375 0 0  1.453125 0 0  1.46875 0 0  1.484375 0 0  1.515920751924515 0 0  1.531989369316721 0 0  1.54820720925872 0 0  1.564575665560501 0 0  1.581096138674279 0 0  1.597770029901263 0 0  1.614598783332311 0 0  1.631583831055205 0 0  1.64872661129721 0 0  1.666028606716533 0 0  1.683491276608443 0 0  1.701116134125304 0 0  1.718904673324128 0 0  1.736858414799339 0 0  1.754978895814663 0 0  1.773267661782904 0 0  1.791726281103402 0 0  1.810356325314689 0 0  1.8291593848892 0 0  1.848137076690385 0 0  1.867291007717254 0 0  1.886622833871288 0 0  1.90613418642363 0 0  1.925826753299799 0 0  1.945702199101513 0 0  1.96576223584749 0 0  1.986008569283268 0 0  2.006442931928877 0 0  2.02706707547783 0 0  2.047882750887917 0 0  2.06889175187935 0 0  2.090095860038271 0 0  2.111496891648636 0 0  2.133096679109554 0 0  2.154897066851056 0 0  2.176899916687499 0 0  2.199107102752146 0 0  2.22152053937028 0 0  2.244142122958061 0 0  2.266973806444078 0 0  2.290017523268154 0 0  2.313275249499252 0 0  2.336748971745516 0 0  2.360440702338606 0 0  2.384352453384031 0 0  2.408486280477412 0 0  2.432844240041185 0 0  2.457428414757088 0 0  2.482240901796653 0 0  2.507283830121838 0 0  2.532559332080812 0 0  2.558069568787417 0 0  2.583816724966441 0 0  2.60980299606584 0 0  2.636030600971886 0 0  2.662501790984011 0 0  2.689218818279327 0 0  2.716183964547616 0 0  2.743399548861297 0 0  2.77086788244719 0 0  2.798591312896326 0 0  2.826572223178268 0 0  2.854812990138617 0 0  2.883316031690714 0 0  2.912083780657189 0 0  2.941118704633482 0 0  2.970423276998917 0 0  3 0.02999999999994495 0  3 0.05999999999987042 0  3 0.089999999999783 0  3 0.119999999999701 0  3 0.149999999999619 0  3 0.179999999999692 0  3 0.2099999999997737 0  3 0.2399999999998511 0  3 0.2699999999999185 0  2.970138294777171 0.3 0  2.940375666438236 0.3 0  2.910711782853056 0.3 0  2.881146331305122 0.3 0  2.851678975030285 0.3 0  2.822309388626621 0.3 0  2.793037250095074 0.3 0  2.76386223529133 0.3 0  2.734784017903872 0.3 0  2.705802289276642 0.3 0  2.676916713794697 0.3 0  2.648126987654635 0.3 0  2.619432780406184 0.3 0  2.590833779385199 0.3 0  2.562329669847737 0.3 0  2.533920134950189 0.3 0  2.505604855727852 0.3 0  2.477383539822502 0.3 0  2.449255847639465 0.3 0  2.421221492569094 0.3 0  2.393280152486815 0.3 0  2.36543151914496 0.3 0  2.337675285481809 0.3 0  2.310011142385583 0.3 0  2.282438797441587 0.3 0  2.254957931061538 0.3 0  2.227568248063605 0.3 0  2.200269436651085 0.3 0  2.173061204949961 0.3 0  2.145943251515011 0.3 0  2.118915272469994 0.3 0  2.091976978084957 0.3 0  2.065128060700849 0.3 0  2.038368218849433 0.3 0  2.01169717777258 0.3 0  1.985114624111908 0.3 0  1.958620267850966 0.3 0  1.93221382054972 0.3 0  1.905894991850698 0.3 0  1.879663489459713 0.3 0  1.853519019126419 0.3 0  1.827461291053897 0.3 0  1.801490031354372 0.3 0  1.775604937580312 0.3 0  1.74980572560258 0.3 0  1.724092118631866 0.3 0  1.698463829173586 0.3 0  1.672920575782554 0.3 0  1.647462076974085 0.3 0  1.622088043536933 0.3 0  1.5967981978949 0.3 0  1.571592267767068 0.3 0  1.546469970305736 0.3 0  1.521431023814044 0.3 0  1.496475156230927 0.3 0  1.471602093687753 0.3 0  1.446811560490646 0.3 0  1.422103279101731 0.3 0  1.397476971708191 0.3 0  1.37293238939876 0.3 0  1.348469231419202 0.3 0  1.324087248732772 0.3 0  1.299786165921677 0.3 0  1.275565710847046 0.3 0  1.251425617644257 0.3 0  1.227365618676339 0.3 0  1.203385446174014 0.3 0  1.179484853067473 0.3 0  1.155663548773374 0.3 0  1.131921292279077 0.3 0  1.108257802159295 0.3 0  1.084672829009693 0.3 0  1.061166115303374 0.3 0  1.037737392995421 0.3 0  1.01438640299116 0.3 0  0.991112899770314 0.3 0  0.9679166155523955 0.3 0  0.944797284182564 0.3 0  0.921754678526042 0.3 0  0.8987885143602501 0.3 0  0.8758985548820624 0.3 0  0.8530845484099929 0.3 0  0.8303462351786988 0.3 0  0.8076833651172373 0.3 0  0.7850956864865304 0.3 0  0.7625829601354557 0.3 0  0.7401449314598274 0.3 0  0.717781337993959 0.3 0  0.6954919649675473 0.3 0  0.6732765357561226 0.3 0  0.6511348120768439 0.3 0  0.6290665642016573 0.3 0  0.6070715355430467 0.3 0  0.5851494825775325 0.3 0  0.5633001690203812 0.3 0  0.5415233562273221 0.3 0  0.5198187909431873 0.3 0  0.4981862401387795 0.3 0  0.4766254686134248 0.3 0  0.4551362360485234 0.3 0  0.4337182975262159 0.3 0  0.4123714223228037 0.3 0  0.3910953802377493 0.3 0  0.3698899313205595 0.3 0  0.3487548463710963 0.3 0  0.3276898864081783 0.3 0  0.3066948129116018 0.3 0  0.2857694003037476 0.3 0  0.2649134227095047 0.3 0  0.2441266417321288 0.3 0  0.2234088223399122 0.3 0  0.2027597568977288 0.3 0  0.1821792020676698 0.3 0  0.1616669305402443 0.3 0  0.1412227158799362 0.3 0  0.12084633013886 0.3 0  0.1005375673448281 0.3 0  0.08029618164595353 0.3 0  0.06012194778526769 0.3 0  0.04001466495039718 0.3 0  0.01997408913631205 0.3 0  0 0.2800000000000553 0  0 0.2600000000001105 0  0 0.2400000000001658 0  0 0.2200000000002211 0  0 0.2000000000002764 0  0 0.1800000000002244 0  0 0.1600000000001691 0  0 0.140000000000115 0  0 0.1200000000000564 0  1.13346801534201 0.01255848438672509 0  1.003577645172735 0.09351054173913405 0  0.9777559943702486 0.1034978156913738 0  0.9524533750752109 0.1040889939962738 0  0.9296242411226409 0.1041520033606139 0  0.9046110503652111 0.104409422380137 0  0.8777709649694228 0.1053360318797398 0  0.8483859145648608 0.1061007868330701 0  0.8162363822948977 0.1052777104363292 0  0.7893110024210437 0.1060761643971561 0  0.7587949382612539 0.1067265405088633 0  0.7280603867732535 0.1069398153264939 0  0.6947001989413015 0.1075609887579097 0  0.6590363283767549 0.1076715322596598 0  0.6210028614493155 0.1072970410408442 0  1.1953125 0.01353164693413185 0  1.258193991486058 0.01269648635163345 0  1.3201967268638 0.01407907077719561 0  1.383538555392096 0.01434101079053473 0  1.445312500000001 0.01303671693628424 0  1.508925448095738 0.01398525724792267 0  0.9939176689634008 0.1034638089837981 0  1.120967497222226 0.2796788492172345 0  1.572835902117391 0.01424132418857359 0  1.637573277451887 0.01212536916586023 0  1.709730776795181 0.01466855431023635 0  1.005631976950563 0.07074019818158772 0  1.784944696816299 0.01454708406461822 0  0.5805605730631225 0.1101465090472147 0  1.855621181165637 0.01550931272897607 0  0.5366111276616774 0.1096761308243709 0  1.935200147913231 0.01760344159641829 0  1.214922267975168 0.2799787705802257 0  1.31178773425331 0.2792
[...]
<PointData  Scalars="pressure"> 
<DataArray  type="Float64"  Name="pressure"  format="ascii">1.6098901645718275e-01  -1.6520912093652748e-01  -2.1938582523486191e-01  -1.6324604354433225e-01  -4.2876824448458806e-02  0.0000000000000000e+00  0.0000000000000000e+00  1.6099558703806410e-01  1.5506289392546230e-01  1.4923226677904011e-01  1.4349557079684663e-01  1.3785128193762392e-01  1.3229788866269448e-01  1.2683391281851999e-01  1.2145791905015055e-01  1.1616844126504371e-01  1.1096408357871412e-01  1.0584345899872023e-01  1.0080516701773488e-01  9.5847859753444065e-02  9.0970223260617045e-02  8.6170901610497702e-02  8.1448599664158683e-02  7.6802099973242346e-02  7.2230022031137681e-02  6.7731172059537284e-02  6.3304313175236979e-02  5.8948157799030919e-02  5.4661543263072578e-02  5.0443339672721389e-02  4.6292220083768168e-02  4.2207102594990491e-02  3.8186719958123769e-02  3.4229977859299800e-02  3.0335831826661320e-02  2.6503035642782995e-02  2.2730425763901600e-02  1.9016959962844870e-02  1.5361522384863695e-02  1.1762942180338387e-02  8.2202312587131027e-03  4.7321839932908680e-03  1.2977888798640432e-03  -2.0841044771938962e-03  -5.4145519388214564e-03  -8.6942543152294487e-03  -1.1924940552538741e-02  -1.5107250155342910e-02  -1.8242271771616830e-02  -2.1331244702112159e-02  -2.4375170479004393e-02  -2.7374527470207532e-02  -3.0331256801532466e-02  -3.3245871489562172e-02  -3.6119464409195015e-02  -3.8953139103964037e-02  -4.1747866724662103e-02  -4.4504670365923260e-02  -4.7224695355629405e-02  -4.9908858503827071e-02  -5.2558106143706936e-02  -5.5173371425171848e-02  -5.7756157464625743e-02  -6.0306874698263062e-02  -6.2826744066786885e-02  -6.5316423616976482e-02  -6.7777820603742905e-02  -7.0211381224855055e-02  -7.2617382301558106e-02  -7.4997470424165755e-02  -7.7353139652446112e-02  -7.9684165097052048e-02  -8.1992487763855870e-02  -8.4278818927700713e-02  -8.6543466335834637e-02  -8.8787924424692619e-02  -9.1013059180744441e-02  -9.3219756766972292e-02  -9.5409647617388779e-02  -9.7582850813539262e-02  -9.9739838673245054e-02  -1.0188123526926932e-01  -1.0401020777798387e-01  -1.0612596324827664e-01  -1.0822913711465089e-01  -1.1032145198773688e-01  -1.1240327037961552e-01  -1.1447545896814390e-01  -1.1653900202284931e-01  -1.1859557449990213e-01  -1.2064557412207251e-01  -1.2268914582265061e-01  -1.2472833622407176e-01  -1.2676384858993531e-01  -1.2879656746920665e-01  -1.3082753324892862e-01  -1.3285762260451456e-01  -1.3488801612749421e-01  -1.3691985479661384e-01  -1.3895434012593638e-01  -1.4099239073875100e-01  -1.4303509160866204e-01  -1.4507966429978020e-01  -1.4710537051510483e-01  -1.4946089282703559e-01  -1.4995262704471257e-01  -1.5275843235445763e-01  -1.4701665635688277e-01  -1.5249173958922235e-01  -1.5138551740886683e-01  -2.0563196844410100e-01  -1.8374382565227618e-01  -1.7709808454379794e-01  -1.7228256988122045e-01  -1.6904082066326437e-01  -1.6661191766191422e-01  -1.6479561853327204e-01  -1.6346821594755653e-01  -1.6267426974472060e-01  -1.6248435225163865e-01  -1.6289409909454641e-01  -1.6368667326545830e-01  -1.6406473582500300e-01  -1.6386432297635331e-01  -1.6320078955176170e-01  -1.6216510282935320e-01  -1.6080126064132022e-01  -1.5909458359035941e-01  -1.5703251267835466e-01  -1.5464394004748000e-01  -1.5194597393773948e-01  -1.4894239207214077e-01  -1.4564652795543698e-01  -1.4206896699294622e-01  -1.3822126966459899e-01  -1.3412313243179977e-01  -1.2978676417019736e-01  -1.2522383474069856e-01  -1.2045191038685077e-01  -1.1548905137390215e-01  -1.1034469304382205e-01  -1.0504863847138020e-01  -9.9617673067851700e-02  -9.4067242278559227e-02  -8.8427357064223208e-02  -8.2716085178312679e-02  -7.6961777389523159e-02  -7.1186895997424157e-02  -6.5413583981493550e-02  -5.9673501706449680e-02  -5.3987442714604143e-02  -4.8381575333165457e-02  -3.7396743455790561e-02  -3.2027596636423086e-02  -2.6778943789111394e-02  -2.1686101048825495e-02  -1.6777161860003734e-02  -1.2054025434199665e-02  -7.5461654480989673e-03  -3.2593211256308676e-03  7.5672567731329765e-04  4.5252621688123993e-03  8.0441695008440332e-03  1.1291420554816215e-02  1.4268636041603855e-02  1.6981864875577159e-02  1.9434425715134363e-02  2.1631014577439944e-02  2.3586643800699823e-02  2.5301356214103770e-02  2.6790088211383577e-02  2.8083068523585775e-02  2.9169030848230342e-02  3.0078678210079240e-02  3.0825838969791346e-02  3.1419075974082313e-02  3.1880269097043480e-02  3.2214618080604475e-02  3.2453432557561238e-02  3.2587936138309424e-02  3.2639652430052457e-02  3.2613807611977845e-02  3.2518688172649593e-02  3.2364178976272327e-02  3.2159856397733610e-02  3.1910079153160180e-02  3.1615851262037260e-02  3.1284552858557947e-02  3.0917046522748570e-02  3.0516137368514312e-02  3.0083000136827232e-02  2.9618084485176867e-02  2.9121772760388340e-02  2.8593982714395439e-02  2.8033449428377884e-02  2.7440428930347656e-02  2.6812368934483889e-02  2.6147885572632420e-02  2.5448056109194581e-02  2.4708029912758160e-02  2.3925588837023865e-02  2.3105425723496050e-02  2.2237501589787011e-02  2.1329350291474401e-02  2.0369889169493505e-02  1.9368505808751293e-02  1.8317096190875955e-02  1.7211726859363917e-02  1.6063411926504786e-02  1.4857391474967105e-02  1.3605612951698315e-02  1.2301775262110674e-02  1.0945067346832217e-02  9.5353805522360811e-03  8.0752306975460115e-03  6.5679084272821263e-03  5.0044624453023066e-03  3.4023421523768803e-03  1.7457243587777069e-03  0.0000000000000000e+00  0.0000000000000000e+00  0.0000000000000000e+00  0.0000000000000000e+00  0.0000000000000000e+00  0.0000000000000000e+00  0.0000000000000000e+00  0.0000000000000000e+00  0.0000000000000000e+00  1.9305782279187560e-03  3.7296876566938956e-03  5.4976710817975696e-03  7.2103910120134441e-03  8.8716450768359309e-03  1.0480314906925799e-02  1.2035516535419013e-02  1.3535611100794652e-02  1.4977859963532911e-02  1.6360031721416382e-02  1.7678154325800988e-02  1.8929686514194848e-02  2.0109548985150417e-02  2.1214687052300538e-02  2.2240226801876917e-02  2.3179460586996496e-02  2.4031949922171867e-02  2.4786541358778079e-02  2.5438543296988816e-02  2.5981780325704761e-02  2.6409404204036192e-02  2.6714867239768059e-02  2.6892500499590671e-02  2.6931782012590687e-02  2.6831129200631205e-02  2.6579193489472012e-02  2.6173911375255068e-02  2.5604308097602693e-02  2.4865549124883028e-02  2.3955293542186281e-02  2.2863237851214208e-02  2.1584227989083948e-02  2.0133320990322532e-02  1.8496723727568620e-02  1.6648809172663245e-02  1.4630002312060762e-02  1.2417038044626554e-02  1.0011103498019048e-02  7.4137360775984387e-03  4.6324881694615218e-03  1.6584836128169008e-03  -1.4944744422369311e-03  -4.8351030131125287e-03  -8.3528515568133867e-03  -1.2059114600580834e-02  -1.5938374598818816e-02  -1.9991983495489141e-02  -2.4211154079343804e-02  -2.8598943598050364e-02  -3.3141601173583703e-02  -3.7836184772065337e-02  -4.2670966113331994e-02  -4.7632065541410376e-02  -5.2710378135951877e-02  -5.7889812851622029e-02  -6.3145694224750262e-02  -6.8416589465661079e-02  -7.3750310617835574e-02  -7.9059415738912522e-02  -8.4281467366940380e-02  -8.9420580532122720e-02  -9.4403057837360527e-02  -9.9207637452723124e-02  -1.0372635876998235e-01  -1.0795116518914488e-01  -1.1176988491590048e-01  -1.1517002995302586e-01  -1.1803817314667248e-01  -1.2037889274517824e-01  -1.2205872165127571e-01  -1.2309438847125458e-01  -1.2341691802045932e-01  -1.2290366387023445e-01  -1.2173069115830093e-01  -1.1977562530680204e-01  -1.1705511696636464e-01  -1.1369453131267437e-01  -1.0972557983341069e-01  -1.0527466399505277e-01  -1.0041202999992921e-01  -9.5141423794524560e-02  -8.9592413402258250e-02  -8.3802929665195813e-02  -7.7859177427241064e-02  -7.1765862569887387e-02  -6.5549132981928118e-02  -5.9257396943086155e-02  -5.2902781962693685e-02  -4.6495593346979461e-02  -4.0057548524030047e-02  -3.3593372361927366e-02  -2.7119893175922349e-02  -2.0639802613825319e-02  -1.4155480178252905e-02  -7.6774053162681002e-03  -1.2067125726167092e-03  5.2554803224595147e-03  1.1705994670302530e-02  1.8142000688160215e-02  2.4562442486855757e-02  3.0966849676281320e-02  3.7353827801972585e-02  4.3723209064174630e-02  5.0073530247048539e-02  5.6405119708772454e-02  6.2717322128842276e-02  6.9009895775404811e-02  7.5282759204662306e-02  8.1535637267545952e-02  8.7768490484166295e-02  9.3981293341857355e-02  1.0017396352166512e-01  1.0634648355894467e-01  1.1249885981297919e-01  1.1863110871323422e-01  1.2474321697195488e-01  1.3083525458040302e-01  1.3690724706085655e-01  1.4295922684587767e-01  1.4899124879087031e-01  1.5500335131368431e-01  1.6099556164914869e-01  1.6099528853277997e-01  1.6099462155528610e-01  1.6099357458725588e-01  1.6099230287662730e-01  1.6099102985389599e-01  1.6098998069774351e-01  1.6098930927583616e-01  1.6098903714029722e-01  -1.5547542958103966e-01  -1.8842422863256500e-01  -1.5311024499873946e-01  -1.3998763746796772e-01  -1.2990090412956010e-01  -1.1968940985501229e-01  -1.0944378111352929e-01  -9.8827875291080711e-02  -8.7732288166796429e-02  -7.8758668788828451e-02  -6.8838253957816412e-02  -5.9047536522382871e-02  -4.8588149774581417e-02  -3.7544022845524251e-02  -2.5877224551936313e-02  -1.4371306951041526e-01  -1.2737718880130661e-01  -1.0782985782614955e-01  -8.5504100855530077e-02  -6.2809272531245422e-02  -4.0159342009471750e-02  -1.6499828702724548e-01  -1.2201535725241500e-01  -1.9621629000856757e-02  -2.2086307617523861e-03  1.2360232330196839e-02  -1.6853098542304709e-01  2.2546240757370387e-02  -1.3560000242127584e-02  2.8232487479781243e-02  -2.4087793227276576e-04  3.1421512643651728e-02  -1.1290307881250031e-01  -9.6162880507634371e-02  3.2493071590267104e-02  -7.5959316989400852e-02  1.3562667293957590e-02  -4.9756913319718439e-02  3.2174673660551732e-02  2.8418103136017225e-02  -1.6099931708209794e-01  3.1031584704888569e-02  -2.6165097564127361e-02  -1.2185150284163379e-01  4.3817635373542135e-02  2.9322421741540785e-02  -3.1034651882439913e-03  6.1313182927933987e-02  5.8881458710404871e-03  2.7064955833617777e-02  1.3626167973637776e-02  7.8603013855273601e-02  -1.1509577558635953e-01  2.4334054583279956e-02  1.9304123772225332e-02  -1.0274344461993586e-01  2.3417330018312667e-02  2.0833223954966507e-02  -8.6697923386032882e-02  9.8802393549059217e-02  1.1281919331935519e-01  -1.3883484896442049e-02  1.7736701352473908e-02  1.4061571782220441e-02  2.5816422723743578e-02  -6.8867469584391952e-02  2.6805884879751000e-02  -1.4607258127340939e-01  -4.3721033206070715e-02  2.6091800963489457e-02  1.3027077829207023e-01  -2.3918867092905676e-02  1.0213432321318414e-02  2.3533831787157629e-02  -4.3215337973757295e-03  2.1519283597506069e-02  2.0590244228075483e-02  5.3239902870496805e-02  1.6957496896460464e-02  7.2202599808044152e-02  9.0980875955191123e-02  1.2739264257734790e-02  1.2258149758882352e-01  1.6065527755444867e-03  1.5541228825108036e-01  -1.6367319364151459e-01  8.1355232336905569e-03  5.6659962236093077e-03  1.4038423085626661e-01  -1.7512928289533256e-01  -1.6303878103431133e-01  -1.1860835767519484e-01  -5.5988691205558015e-02  7.9864855524910822e-03  3.3827976879692509e-02  1.4072496543137122e-01  -4.0362518088451878e-02  -6.5050407155130704e-02  -8.6213621321912362e-02  -1.0517282004157082e-01  8.8865046307100667e-02  2.6602301721080458e-02  6.9692844271349905e-02  1.0322277090207213e-01  2.5020991011480025e-02  2.2668091946184649e-02  5.1992576526325975e-02  2.5693954330947778e-02  2.8274342936029227e-02  3.6457602856893548e-02  3.0242854607931784e-02  3.1687641677402255e-02  3.2467417008373814e-02  3.2197416811020792e-02  -2.9769129898204301e-02  2.0872079756692904e-02  3.0145871632970254e-02  2.5735174199461575e-02  6.4931982237616728e-03  1.8081858270578090e-02  5.9012495971886396e-03  -1.0039648412744772e-02  1.3277401980696657e-03  -7.4178400102228870e-03  -1.9339905876019033e-02  1.5575233528209304e-01  -3.1479154576223550e-02  -4.3136992697753868e-02  -5.3880245231475575e-02  -6.4182603860807000e-02  -7.3880342787520217e-02  -8.3060145011837269e-02  -1.5006058105953843e-01  -9.4355373847493484e-02  -1.0511665287411902e-01  -1.1557301582674284e-01  -1.3610586522769577e-01  -1.2589404892396239e-01  -9.7171608061002446e-02  -1.1751028282381916e-01  -7.5147057189318939e-02  -5.1494203222358870e-02  -1.3600205426321424e-01  -1.5196294353619724e-01  1.6954227655220789e-03  1.5525527980928416e-01  4.5413584532030676e-03  -1.6345942993751897e-01  1.5600438595211741e-01  1.3502373389270019e-03  1.5189956752069256e-01  -1.6343090036415908e-01  -1.6309379428451307e-01  -1.6263942509195328e-01  -1.6313558101852144e-01  -1.6266340993731127e-01  -1.6348831231304006e-01  -1.6283552824924230e-01  -1.6394571969292576e-01  -1.6312235316952908e-01  -1.6427181507983857e-01  -1.6332969629505123e-01  -1.6420321868587553e-01  -1.6306680284976738e-01  -1.6357426911507630e-01  -1.6230243745995002e-01  -1.6248325761400095e-01  -1.6103922931061909e-01  -1.6098107282533991e-01  -1.5937015721872894e-01  -1.5887682237712439e-01  -1.5697885506625972e-01  -1.6052215539904041e-01  -1.5757135586893883e-01  -1.5479497359582850e-01  -1.5768330338728637e-01  -1.5956744018397159e-01  -1.5514761905562294e-01  -1.5223951038978342e-01  -1.5251409082845643e-01  -1.4924329022248675e-01  -1.4940149948640846e-01  -1.4580814510145093e-01  -1.4588936709035419e-01  -1.4222896066108021e-01  -1.4197568310344000e-01  -1.3757630577971672e-01  -1.3743984359833269e-01  -1.3322510824430284e-01  -1.3266224410196101e-01  -1.2828359634408643e-01  -1.2748592077227930e-01  -1.2301294024333514e-01  -1.2199478215143041e-01  -1.1747428624861277e-01  -1.1619586672448344e-01  -1.1169749557026067e-01  -1.1012212864820317e-01  -1.0569357751778805e-01  -1.0383615334058134e-01  -9.9544892874692120e-02  -9.7346003614806970e-02  -9.3286518773640595e-02  -9.0643409165966929e-02  -1.5558948037071701e-01  -1.5721590298157564e-01  -8.6929276453193233e-02  -8.3860761179520182e-02  -8.0570184772064887e-02  -7.7504557139790903e-02  -7.4285311282169128e-02  -7.0873518558363560e-02  -6.8093405313049249e-02  -6.4355015376387686e-02  -1.5102810790445803e-01  -6.2109179060869449e-02  -5.7942591565320403e-02  -5.6007215600020914e-02  -5.1650289278317524e-02  -5.0354927640978167e-02  -4.5637635860677137e-02  -1.5242459182202026e-01  -1.5408455441509569e-01  -1.6470043391724712e-01  -4.4819017186937399e-02  -3.9813567282083691e-02  -3.9559023199349293e-02  -3.4267977384664979e-02  -3.4554639155028773e-02  -2.9035931874505733e-02  -1.6068182813712781e-01  -2.9826655421161554e-02  -2.4085053595832535e-02  -1.4140811781746893e-01  -2.5361304256561600e-02  -1.9465399054258366e-02  -2.1192631399346420e-02  -1.5170800849301102e-02  -1.7239402763169483e-02  -1.1192405347700168e-02  -1.6167297459928723e-01  -1.2807049259537037e-01  -1.3624280232944094e-02  -7.5332513390833260e-03  -1.4824459901922984e-01  -1.4912387624251347e-01  -1.4692301618738737e-01  -1.1226407266173292e-01  -1.0205859652176767e-02  -4.0307394378197772e-03  -7.1365134087353335e-03  -8.8863790345762995e-04  -4.2234568880829566e-03  1.8296285258598496e-03  -4.0728495281058409e-02  -1.2485939147167146e-03  -2.3541181218331795e-02  -6.0279878974127725e-02  -1.5278670892869748e-03  4.3183336418478584e-03  7.6731393729873015e-03  1.0014197401811139e-02  6.6438970178912121e-03  1.2123621537604195e-02  8.8350594935634845e-03  1.4090294830356622e-02  1.0810670327526837e-02  1.5800181931905376e-02  1.2618433592085452e-02  1.7374132876755117e-02  1.4319431409186751e-02  1.8755752105391051e-02  1.5792048468022686e-02  2.0016640555446882e-02  1.7266171705470110e-02  2.1272699856219678e-02  1.8582304165052389e-02  2.2301351700831234e-02  1.9823902950182368e-02  2.3195854306246957e-02  2.0815598448401848e-02  2.4010677233059774e-02  -8.0477103219367893e-02  -9.5222884691796433e-02  2.1834257224190690e-02  2.4699928597475870e-02  2.2803766626500726e-02  2.5357265223734011e-02  -1.4868378480336608e-01  -1.1409183826107791e-01  2.3669625590317427e-02  2.5902584487687227e-02  -1.3115815061301425e-01  -7.7815695030208798e-02  -1.4315221388769667e-01  -1.4355130625117929e-01  -1.5019623964422230e-01  -1.4348528678435163e-01  -1.4887254472406905e-01  -1.4264241425293533e-01  -1.4813563801797483e-01  -1.4121591663349725e-01  -1.4485798536224992e-01  -1.3882922783009516e-01  -1.4250295163655727e-01  -1.3612028110313509e-01  -1.3826765374139302e-01  -1.3285778610655741e-01  -1.3436058766680067e-01  -1.2949812464012342e-01  -1.3044269443481604e-01  -1.2595177183438519e-01  -1.2653915671106533e-01  -1.2238010836161343e-01  -1.2264739431385401e-01  -1.1874939240359962e-01  -1.1879836492063291e-01  -1.1511607542625137e-01  -1.1497633807246273e-01  -1.1152091841755399e-01  -1.1086179883967474e-01  -1.0766532978977902e-01  -1.0798381156549425e-01  -1.0436732014448705e-01  -1.0399211503937932e-01  -1.0075740174385550e-01  -1.0040598855896034e-01  -9.7193643768661714e-02  -9.6604540891885887e-02  -9.3576392686708074e-02  -1.2782932303263184e-01  -1.0424131824140172e-01  -1.1805059427257311e-01  -9.2934746790252001e-02  -8.9881897082560086e-02  -9.0300639585889020e-02  -8.6766196052210573e-02  -8.6147441627571500e-02  -8.3149869477888508e-02  -8.2369320161432599e-02  -7.9483192928090016e-02  -7.8607355508508323e-02  -7.5764290959031755e-02  -8.3036450268042641e-02  -1.5376619709583667e-01  -1.4344084704305746e-01  -7.4906548958918101e-02  -7.1987132655598030e-02  -7.2809868895385252e-02  -6.9032431937896002e-02  -6.8185909813856749e-02  -6.5272297379877234e-02  -6.4329226982484222e-02  -6.1489637576713337e-02  -1.3484529729689462e-01  -6.5858741425476666e-02  -6.0496174303300669e-02  -5.7721418629674594e-02  -1.2644632067167608e-01  -5.6777109429767374e-02  -5.3899417196625242e-02  -5.5120472417427797e-02  -5.0973746271683204e-02  -4.9968146361737034e-02  -4.6926213011146092e-02  -4.7894433781607369e-02  -4.3844455598811970e-02  -4.2896994189167530e-02  -3.9804592950852556e-02  -3.8853154056753172e-02  -3.5672631780373575e-02  -3.6651013154957147e-02  -3.2519349428481767e-02  -3.1515715771018735e-02  -2.8384760333222361e-02  -2.7423877525348726e-02  -2.4269433187355284e-02  -1.3775384847253253e-01  -1.0356614181508665e-01  -1.1830762522354961e-01  -2.3405593731066807e-02  -2.0187141670843043e-02  -2.1064346851555778e-02  -1.6826869671914896e-02  -1.5957734333450928e-02  -1.2596164532325285e-02  -1.7703151166571104e-02  2.4358935572007401e-02  2.6359185530960970e-02  2.4990878025983890e-02  2.6749428714357065e-02  2.5559266295761430e-02  2.7068477648539518e-02  -8.5403939736086315e-02  -4.9754831740713990e-02  -1.6451046438005590e-01  -1.1697686714551122e-02  -8.4018879859510554e-03  -9.5860338045237373e-02  2.1889479945763079e-02  2.6176217299262335e-02  1.2830671975301902e-02  2.6037114570605129e-02  2.7307037020155599e-02  2.8429766261068780e-02  2.8441125162371936e-02  2.7471399333858570e-02  2.8401011902127508e-02  2.7569485798114655e-02  2.8302569134777310e-02  2.7584967764613683e-02  2.8136700505258766e-02  2.7528631998373909e-02  2.7913585414982910e-02  2.7388232207499294e-02  2.7618960159350218e-02  2.7171433168309514e-02  2.7265291263767862e-02  2.6882180578111415e-02  2.6850288600022348e-02  2.6523343507204963e-02  2.6376510061985634e-02  2.6084575147522278e-02  2.5828219493237232e-02  2.5563703828716183e-02  2.5228810682500970e-02  2.4965191148331796e-02  2.4542133620063179e-02  2.4306368345086080e-02  2.3815427578727864e-02  2.3552515365519378e-02  2.3002565682191028e-02  2.2744128730953623e-02  2.2142375527606461e-02  2.8031006415482958e-02  -3.3565106440210338e-02  -6.7279675018418236e-02  -7.3830854227490382e-03  -4.0989114030754994e-03  -5.1092539370694015e-03  -6.5382236228531370e-04  -1.7087404980524890e-03  2.8510676552434429e-03  3.7843260803432843e-03  7.3096806426938684e-03  8.3614175060577715e-03  1.1859948445915468e-02  1.0905674964137541e-02  1.5444585852861376e-02  1.6255728466864763e-02  1.9947768747535219e-02  2.0743949114979586e