<?xml version="1.0"?>
<VTKFile type="UnstructuredGrid"  version="0.1"  >
<UnstructuredGrid>
<Piece  NumberOfPoints="2886" NumberOfCells="5412">
<Points>
<DataArray  type="Float64"  NumberOfComponents="3"  format="ascii">0 0.1 0  0.98 0.1 0  1 0.1 0  1 0 0  1.5 0 0  3 0 0  3 0.3 0  0 0.3 0  0.01975375321854102 0.1 0  0.03918897458218897 0.1 0  0.05831079002627837 0.1 0  0.07712425666319796 0.1 0  0.0956343475259058 0.1 0  0.1138459546796227 0.1 0  0.1317638870668193 0.1 0  0.1493928840275937 0.1 0  0.1667376092280033 0.1 0  0.1838026357802664 0.1 0  0.2005924801287244 0.1 0  0.2171115811543574 0.1 0  0.2333643037107681 0.1 0  0.2493549444060462 0.1 0  0.2650877293306821 0.1 0  0.2805668058011438 0.1 0  0.2957962848620976 0.1 0  0.3107801766802674 0.1 0  0.3255224447361181 0.1 0  0.3400269848175519 0.1 0  0.3542976327080778 0.1 0  0.3683381609158136 0.1 0  0.3821522744564845 0.1 0  0.3957436316838916 0.1 0  0.4091158196437086 0.1 0  0.4222723742184605 0.1 0  0.4352167733293057 0.1 0  0.4479524348643424 0.1 0  0.4604827295467524 0.1 0  0.4728109659990664 0.1 0  0.4849404035409129 0.1 0  0.4968742471455402 0.1 0  0.508615651843175 0.1 0  0.520167721130924 0.1 0  0.5315335063628542 0.1 0  0.5427160117228604 0.1 0  0.5537181940261912 0.1 0  0.564542961924507 0.1 0  0.575193173270606 0.1 0  0.5856716438765114 0.1 0  0.5959811458006617 0.1 0  0.6061243988680743 0.1 0  0.6161040893285659 0.1 0  0.6259228503970299 0.1 0  0.6355832809287655 0.1 0  0.6450879281079505 0.1 0  0.6544393102991295 0.1 0  0.663639896558931 0.1 0  0.6726921201956305 0.1 0  0.6815983691630338 0.1 0  0.6903610031396646 0.1 0  0.6989823343332418 0.1 0  0.7074646404270378 0.1 0  0.7158101645005117 0.1 0  0.7240211149852543 0.1 0  0.7320996585612525 0.1 0  0.7400479319727645 0.1 0  0.7478680336617921 0.1 0  0.755562036504958 0.1 0  0.7631319665092091 0.1 0  0.7705798279317605 0.1 0  0.777907588066146 0.1 0  0.7851171851013118 0.1 0  0.7922105226004981 0.1 0  0.7991894774550319 0.1 0  0.8060558928136696 0.1 0  0.812811583201334 0.1 0  0.8194583352091183 0.1 0  0.8259979035038147 0.1 0  0.8324320194413813 0.1 0  0.8387623808293405 0.1 0  0.8449906627004957 0.1 0  0.8511185094880469 0.1 0  0.8571475426008311 0.1 0  0.8630793533568246 0.1 0  0.8689155114558531 0.1 0  0.8746575581239063 0.1 0  0.8803070109173519 0.1 0  0.885865363938836 0.1 0  0.8913340851680313 0.1 0  0.8967146206523592 0.1 0  0.9020083930695622 0.1 0  0.9072167995950768 0.1 0  0.9123412183131177 0.1 0  0.9173830029719022 0.1 0  0.9223434865647732 0.1 0  0.9272239785872722 0.1 0  0.9320257720706087 0.1 0  0.9367501330378739 0.1 0  0.9413983102716995 0.1 0  0.9459715351562933 0.1 0  0.9504710127113115 0.1 0  0.9548979346500661 0.1 0  0.9592534708344373 0.1 0  0.9635387708980176 0.1 0  0.9677549682252325 0.1 0  0.971903177251235 0.1 0  0.9759844952956497 0.1 0  0.9840000000000086 0.1 0  0.987999999999974 0.1 0  0.9919999999999393 0.1 0  0.9959999999999913 0.1 0  1 0.09591793123533533 0  1 0.09133596463859224 0  1 0.08619288104391448 0  1 0.08041996484521211 0  1 0.07394008421771697 0  1 0.06666666567302955 0  1 0.05850252932209174 0  1 0.04933859630113544 0  1 0.03905242821848202 0  1 0.02750659386753798 0  1 0.01454683679239736 0  1.015625 0 0  1.03125 0 0  1.046875 0 0  1.0625 0 0  1.078125 0 0  1.09375 0 0  1.109375 0 0  1.125 0 0  1.140625 0 0  1.15625 0 0  1.171875 0 0  1.1875 0 0  1.203125 0 0  1.21875 0 0  1.234375 0 0  1.25 0 0  1.265625 0 0  1.28125 0 0  1.296875 0 0  1.3125 0 0  1.328125 0 0  1.34375 0 0  1.359375 0 0  1.375 0 0  1.390625 0 0  1.40625 0 0  1.421875 0 0  1.4375 0 0  1.453125 0 0  1.46875 0 0  1.484375 0 0  1.515920751924515 0 0  1.531989369316721 0 0  1.54820720925872 0 0  1.564575665560501 0 0  1.581096138674279 0 0  1.597770029901263 0 0  1.614598783332311 0 0  1.631583831055205 0 0  1.64872661129721 0 0  1.666028606716533 0 0  1.683491276608443 0 0  1.701116134125304 0 0  1.718904673324128 0 0  1.736858414799339 0 0  1.754978895814663 0 0  1.773267661782904 0 0  1.791726281103402 0 0  1.810356325314689 0 0  1.8291593848892 0 0  1.848137076690385 0 0  1.867291007717254 0 0  1.886622833871288 0 0  1.90613418642363 0 0  1.925826753299799 0 0  1.945702199101513 0 0  1.96576223584749 0 0  1.986008569283268 0 0  2.006442931928877 0 0  2.02706707547783 0 0  2.047882750887917 0 0  2.06889175187935 0 0  2.090095860038271 0 0  2.111496891648636 0 0  2.133096679109554 0 0  2.154897066851056 0 0  2.176899916687499 0 0  2.199107102752146 0 0  2.22152053937028 0 0  2.244142122958061 0 0  2.266973806444078 0 0  2.290017523268154 0 0  2.313275249499252 0 0  2.336748971745516 0 0  2.360440702338606 0 0  2.384352453384031 0 0  2.408486280477412 0 0  2.432844240041185 0 0  2.457428414757088 0 0  2.482240901796653 0 0  2.507283830121838 0 0  2.532559332080812 0 0  2.558069568787417 0 0  2.583816724966441 0 0  2.60980299606584 0 0  2.636030600971886 0 0  2.662501790984011 0 0  2.689218818279327 0 0  2.716183964547616 0 0  2.743399548861297 0 0  2.77086788244719 0 0  2.798591312896326 0 0  2.826572223178268 0 0  2.854812990138617 0 0  2.883316031690714 0 0  2.912083780657189 0 0  2.941118704633482 0 0  2.970423276998917 0 0  3 0.02999999999994495 0  3 0.05999999999987042 0  3 0.089999999999783 0  3 0.119999999999701 0  3 0.149999999999619 0  3 0.179999999999692 0  3 0.2099999999997737 0  3 0.2399999999998511 0  3 0.2699999999999185 0  2.970138294777171 0.3 0  2.940375666438236 0.3 0  2.910711782853056 0.3 0  2.881146331305122 0.3 0  2.851678975030285 0.3 0  2.822309388626621 0.3 0  2.793037250095074 0.3 0  2.76386223529133 0.3 0  2.734784017903872 0.3 0  2.705802289276642 0.3 0  2.676916713794697 0.3 0  2.648126987654635 0.3 0  2.619432780406184 0.3 0  2.590833779385199 0.3 0  2.562329669847737 0.3 0  2.533920134950189 0.3 0  2.505604855727852 0.3 0  2.477383539822502 0.3 0  2.449255847639465 0.3 0  2.421221492569094 0.3 0  2.393280152486815 0.3 0  2.36543151914496 0.3 0  2.337675285481809 0.3 0  2.310011142385583 0.3 0  2.282438797441587 0.3 0  2.254957931061538 0.3 0  2.227568248063605 0.3 0  2.200269436651085 0.3 0  2.173061204949961 0.3 0  2.145943251515011 0.3 0  2.118915272469994 0.3 0  2.091976978084957 0.3 0  2.065128060700849 0.3 0  2.038368218849433 0.3 0  2.01169717777258 0.3 0  1.985114624111908 0.3 0  1.958620267850966 0.3 0  1.93221382054972 0.3 0  1.905894991850698 0.3 0  1.879663489459713 0.3 0  1.853519019126419 0.3 0  1.827461291053897 0.3 0  1.801490031354372 0.3 0  1.775604937580312 0.3 0  1.74980572560258 0.3 0  1.724092118631866 0.3 0  1.698463829173586 0.3 0  1.672920575782554 0.3 0  1.647462076974085 0.3 0  1.622088043536933 0.3 0  1.5967981978949 0.3 0  1.571592267767068 0.3 0  1.546469970305736 0.3 0  1.521431023814044 0.3 0  1.496475156230927 0.3 0  1.471602093687753 0.3 0  1.446811560490646 0.3 0  1.422103279101731 0.3 0  1.397476971708191 0.3 0  1.37293238939876 0.3 0  1.348469231419202 0.3 0  1.324087248732772 0.3 0  1.299786165921677 0.3 0  1.275565710847046 0.3 0  1.251425617644257 0.3 0  1.227365618676339 0.3 0  1.203385446174014 0.3 0  1.179484853067473 0.3 0  1.155663548773374 0.3 0  1.131921292279077 0.3 0  1.108257802159295 0.3 0  1.084672829009693 0.3 0  1.061166115303374 0.3 0  1.037737392995421 0.3 0  1.01438640299116 0.3 0  0.991112899770314 0.3 0  0.9679166155523955 0.3 0  0.944797284182564 0.3 0  0.921754678526042 0.3 0  0.8987885143602501 0.3 0  0.8758985548820624 0.3 0  0.8530845484099929 0.3 0  0.8303462351786988 0.3 0  0.8076833651172373 0.3 0  0.7850956864865304 0.3 0  0.7625829601354557 0.3 0  0.7401449314598274 0.3 0  0.717781337993959 0.3 0  0.6954919649675473 0.3 0  0.6732765357561226 0.3 0  0.6511348120768439 0.3 0  0.6290665642016573 0.3 0  0.6070715355430467 0.3 0  0.5851494825775325 0.3 0  0.5633001690203812 0.3 0  0.5415233562273221 0.3 0  0.5198187909431873 0.3 0  0.4981862401387795 0.3 0  0.4766254686134248 0.3 0  0.4551362360485234 0.3 0  0.4337182975262159 0.3 0  0.4123714223228037 0.3 0  0.3910953802377493 0.3 0  0.3698899313205595 0.3 0  0.3487548463710963 0.3 0  0.3276898864081783 0.3 0  0.3066948129116018 0.3 0  0.2857694003037476 0.3 0  0.2649134227095047 0.3 0  0.2441266417321288 0.3 0  0.2234088223399122 0.3 0  0.2027597568977288 0.3 0  0.1821792020676698 0.3 0  0.1616669305402443 0.3 0  0.1412227158799362 0.3 0  0.12084633013886 0.3 0  0.1005375673448281 0.3 0  0.08029618164595353 0.3 0  0.06012194778526769 0.3 0  0.04001466495039718 0.3 0  0.01997408913631205 0.3 0  0 0.2800000000000553 0  0 0.2600000000001105 0  0 0.2400000000001658 0  0 0.2200000000002211 0  0 0.2000000000002764 0  0 0.1800000000002244 0  0 0.1600000000001691 0  0 0.140000000000115 0  0 0.1200000000000564 0  1.13346801534201 0.01255848438672509 0  1.003577645172735 0.09351054173913405 0  0.9777559943702486 0.1034978156913738 0  0.9524533750752109 0.1040889939962738 0  0.9296242411226409 0.1041520033606139 0  0.9046110503652111 0.104409422380137 0  0.8777709649694228 0.1053360318797398 0  0.8483859145648608 0.1061007868330701 0  0.8162363822948977 0.1052777104363292 0  0.7893110024210437 0.1060761643971561 0  0.7587949382612539 0.1067265405088633 0  0.7280603867732535 0.1069398153264939 0  0.6947001989413015 0.1075609887579097 0  0.6590363283767549 0.1076715322596598 0  0.6210028614493155 0.1072970410408442 0  1.1953125 0.01353164693413185 0  1.258193991486058 0.01269648635163345 0  1.3201967268638 0.01407907077719561 0  1.383538555392096 0.01434101079053473 0  1.445312500000001 0.01303671693628424 0  1.508925448095738 0.01398525724792267 0  0.9939176689634008 0.1034638089837981 0  1.120967497222226 0.2796788492172345 0  1.572835902117391 0.01424132418857359 0  1.637573277451887 0.01212536916586023 0  1.709730776795181 0.01466855431023635 0  1.005631976950563 0.07074019818158772 0  1.784944696816299 0.01454708406461822 0  0.5805605730631225 0.1101465090472147 0  1.855621181165637 0.01550931272897607 0  0.5366111276616774 0.1096761308243709 0  1.935200147913231 0.01760344159641829 0  1.214922267975168 0.2799787705802257 0  1.31178773425331 0.2792
[...]
<PointData  Scalars="pressure"> 
<DataArray  type="Float64"  Name="pressure"  format="ascii">1.5414383800497561e-01  -1.6738347617294322e-01  -2.1396325617911799e-01  -1.6118593630203812e-01  -4.2192185322253467e-02  0.0000000000000000e+00  0.0000000000000000e+00  1.5415124178198122e-01  1.4821771582458740e-01  1.4238708046171450e-01  1.3665036414836484e-01  1.3100604164098520e-01  1.2545259882583007e-01  1.1998855564051263e-01  1.1461247787116013e-01  1.0932289297826363e-01  1.0411840539529411e-01  9.8997626177802389e-02  9.3959147366839579e-02  8.9001619164051707e-02  8.4123726819495773e-02  7.9324104141410820e-02  7.4601451424983561e-02  6.9954556076759364e-02  6.5382014686502260e-02  6.0882634871366637e-02  5.6455172206460909e-02  5.2098320946708285e-02  4.7810914974594394e-02  4.3591827387006281e-02  3.9439695236286050e-02  3.5353440113992399e-02  3.1331764865156000e-02  2.7373565764904798e-02  2.3477804220471996e-02  1.9643194013542583e-02  1.5868548937633231e-02  1.2152818132666592e-02  8.4948632345189443e-03  4.8934800228326953e-03  1.3476705222181446e-03  -2.1438127476102495e-03  -5.5819968722478014e-03  -8.9680763033768325e-03  -1.2303140102828734e-02  -1.5587846624393560e-02  -1.8824077855700384e-02  -2.2012451641018935e-02  -2.5154072723843585e-02  -2.8250278469190135e-02  -3.1302102356205716e-02  -3.4309943967149009e-02  -3.7275971791511917e-02  -4.0200647412559576e-02  -4.3085119979068012e-02  -4.5930555011510159e-02  -4.8737974673153862e-02  -5.1508451504512880e-02  -5.4243205062285929e-02  -5.6943202748793144e-02  -5.9609435653200815e-02  -6.2242881828377263e-02  -6.4845197526505180e-02  -6.7416757813221775e-02  -6.9958890548269217e-02  -7.2472276465333094e-02  -7.4959008307442565e-02  -7.7419586335762181e-02  -7.9854193574378882e-02  -8.2264677577810946e-02  -8.4652713031701313e-02  -8.7017957387623676e-02  -8.9362586257124260e-02  -9.1687407779347002e-02  -9.3992672555454057e-02  -9.6280079976796759e-02  -9.8550588001512812e-02  -1.0080518198177479e-01  -1.0304576704968046e-01  -1.0527238450903097e-01  -1.0748563212024048e-01  -1.0968609468343572e-01  -1.1187763847735253e-01  -1.1405926567767954e-01  -1.1623171549929674e-01  -1.1839708895897103e-01  -1.2055583946844746e-01  -1.2270906596998758e-01  -1.2485800973445051e-01  -1.2700485871016240e-01  -1.2915017641744259e-01  -1.3129432160797994e-01  -1.3344005401691697e-01  -1.3558851738875208e-01  -1.3774116000866646e-01  -1.3989975181366654e-01  -1.4206594445272228e-01  -1.4424193187425569e-01  -1.4643007767448724e-01  -1.4863312119716601e-01  -1.5085436111505490e-01  -1.5309580276576332e-01  -1.5536367176773977e-01  -1.5765660395538028e-01  -1.6005608086113285e-01  -1.6209027491602807e-01  -1.6673758052829188e-01  -1.6764757295103133e-01  -1.7198899074585580e-01  -1.6775704787558399e-01  -2.0235851555906698e-01  -1.8144340746313203e-01  -1.7494103876187178e-01  -1.7019136220274889e-01  -1.6697668289985676e-01  -1.6456182688683649e-01  -1.6275206940232886e-01  -1.6142534385734858e-01  -1.6062807044599911e-01  -1.6043176927397809e-01  -1.6083533137531311e-01  -1.6162496014505823e-01  -1.6199696894313850e-01  -1.6178917102672163e-01  -1.6111615959194564e-01  -1.6006840987763252e-01  -1.5868998367226678e-01  -1.5696655918798263e-01  -1.5488595404672181e-01  -1.5247786386785070e-01  -1.4976036663923215e-01  -1.4673824999730625e-01  -1.4342599641437936e-01  -1.3983550761338495e-01  -1.3597958056812695e-01  -1.3187909465281483e-01  -1.2754755533592807e-01  -1.2299789432964084e-01  -1.1824871475296388e-01  -1.1331898638687855e-01  -1.0821975288963148e-01  -1.0298026832411286e-01  -9.7618558168899083e-02  -9.2150405445739603e-02  -8.6605391248738062e-02  -8.1001437076967053e-02  -7.5366491501520860e-02  -6.9722422633779757e-02  -6.4090187232914403e-02  -5.8499988507603171e-02  -5.2971483181102966e-02  -4.7529135081531913e-02  -3.6885633766968975e-02  -3.1691541106766301e-02  -2.6618885823679651e-02  -2.1699837501944642e-02  -1.6959765376821239e-02  -1.2401176976564399e-02  -8.0490613344173980e-03  -3.9083085575414046e-03  -2.6168918927652068e-05  3.6199723596774020e-03  7.0301004137150519e-03  1.0183185427323634e-02  1.3080905188762419e-02  1.5729501973083468e-02  1.8132164975594500e-02  2.0293137918578522e-02  2.2226647303904355e-02  2.3932495671605984e-02  2.5423949825692325e-02  2.6730016547803988e-02  2.7838885023902898e-02  2.8779295846719517e-02  2.9564016585356363e-02  3.0200480217098761e-02  3.0709126354099437e-02  3.1093964121129063e-02  3.1385373068829547e-02  3.1573667680784435e-02  3.1679371654812036e-02  3.1707106493722673e-02  3.1664574348992738e-02  3.1561040235544041e-02  3.1405733378063273e-02  3.1202747820884020e-02  3.0952837820175595e-02  3.0663306600396820e-02  3.0334927583944137e-02  2.9970548278667599e-02  2.9571383867044426e-02  2.9137995431119824e-02  2.8670897771968070e-02  2.8170168351958638e-02  2.7634712907099426e-02  2.7064982578930436e-02  2.6458642923450910e-02  2.5814496196654792e-02  2.5133807535618339e-02  2.4411846747668647e-02  2.3646913987782812e-02  2.2843249777234398e-02  2.1991756862671932e-02  2.1099251804292792e-02  2.0155753561277433e-02  1.9169757948054873e-02  1.8133826117565824e-02  1.7044322618275501e-02  1.5911400116910390e-02  1.4721408889908775e-02  1.3485254895789370e-02  1.2197104055775407e-02  1.0855891628634297e-02  9.4617793179435621e-03  8.0167190053425808e-03  6.5237468219858539e-03  4.9733330329699765e-03  3.3834184358186052e-03  1.7376467305882048e-03  0.0000000000000000e+00  0.0000000000000000e+00  0.0000000000000000e+00  0.0000000000000000e+00  0.0000000000000000e+00  0.0000000000000000e+00  0.0000000000000000e+00  0.0000000000000000e+00  0.0000000000000000e+00  1.8815513232290518e-03  3.6353507948592464e-03  5.3611052502228491e-03  7.0337901494230614e-03  8.6571101041340720e-03  1.0229694353184958e-02  1.1750549552212953e-02  1.3217944865958094e-02  1.4629024655890841e-02  1.5981564208267823e-02  1.7271602911705881e-02  1.8496674242934070e-02  1.9651795934768079e-02  2.0734034883616571e-02  2.1738709019234460e-02  2.2659333933483433e-02  2.3495687727426943e-02  2.4236826773730503e-02  2.4878292976811395e-02  2.5414177115402104e-02  2.5837838377469922e-02  2.6142930649527069e-02  2.6323986318529294e-02  2.6370481299191617e-02  2.6281323031882683e-02  2.6044657536152722e-02  2.5658759274863691e-02  2.5112394799487136e-02  2.4400587742976921e-02  2.3520785269813556e-02  2.2462241840835912e-02  2.1219497038160756e-02  1.9807520357799372e-02  1.8211351697247476e-02  1.6405571873340602e-02  1.4429197900801350e-02  1.2259678389758479e-02  9.8966581708773826e-03  7.3414866059464609e-03  4.6017650686868018e-03  1.6675273156346235e-03  -1.4470108829708968e-03  -4.7509656307661132e-03  -8.2340113977899688e-03  -1.1907600219863148e-02  -1.5755365809761768e-02  -1.9779322433260773e-02  -2.3969841866198532e-02  -2.8330345152690856e-02  -3.2846569279859121e-02  -3.7515484813848692e-02  -4.2325483023354822e-02  -4.7262812608116572e-02  -5.2318878659984629e-02  -5.7478099074372853e-02  -6.2716831700024692e-02  -6.7975988129739762e-02  -7.3304241636939937e-02  -7.8615767564464520e-02  -8.3853090729268928e-02  -8.9021878893021031e-02  -9.4051908544742213e-02  -9.8927271796192914e-02  -1.0354390644342717e-01  -1.0789790928431624e-01  -1.1188373969251911e-01  -1.1549087827141420e-01  -1.1861246545936308e-01  -1.2125389690283614e-01  -1.2328471833854525e-01  -1.2472038304022931e-01  -1.2548578086221820e-01  -1.2544767922798641e-01  -1.2477527645402764e-01  -1.2331955800975755e-01  -1.2108111456542936e-01  -1.1817099188199161e-01  -1.1460472126400965e-01  -1.1050865825949401e-01  -1.0595045774023791e-01  -1.0092756011269619e-01  -9.5583647779832595e-02  -8.9959138028914032e-02  -8.4153165994608412e-02  -7.8170156355401671e-02  -7.2040122072565813e-02  -6.5819408273838934e-02  -5.9521795460886623e-02  -5.3159413377510713e-02  -4.6757541557164536e-02  -4.0321654216060737e-02  -3.3871435276562133e-02  -2.7409963670990901e-02  -2.0940051121407718e-02  -1.4473919548787809e-02  -8.0128672806357749e-03  -1.5582277752459670e-03  4.8863016930497253e-03  1.1317407578724275e-02  1.7733877378929262e-02  2.4135139468056545e-02  3.0519572598510271e-02  3.6886963990740936e-02  4.3235620076166277e-02  4.9565901529360405e-02  5.5877045934508388e-02  6.2168759309996852e-02  6.8440939733745682e-02  7.4693258161506612e-02  8.0925660173623362e-02  8.7138104468191396e-02  9.3330487201926743e-02  9.9502777767213738e-02  1.0565497300165851e-01  1.1178708187283740e-01  1.1789907925957191e-01  1.2399103633855074e-01  1.3006297134808026e-01  1.3611491190434938e-01  1.4214691190941278e-01  1.4815900497755713e-01  1.5415121309698904e-01  1.5415090506926479e-01  1.5415015336214949e-01  1.5414897376949169e-01  1.5414754116434917e-01  1.5414610708225718e-01  1.5414492502473939e-01  1.5414416830604732e-01  1.5414386137798369e-01  -1.5332230848496364e-01  -1.8573664664271605e-01  -1.6389259730839253e-01  -1.4978972989809050e-01  -1.3893147122888658e-01  -1.2816044788267161e-01  -1.1749775400476548e-01  -1.0655692835443244e-01  -9.5208827323061601e-02  -8.6082743336221762e-02  -7.6034199904202460e-02  -6.6149393138621490e-02  -5.5616470135047225e-02  -4.4516818800192870e-02  -3.2809186156322633e-02  -1.4149293150126310e-01  -1.2515196755139638e-01  -1.0573897423203936e-01  -8.3743850563301872e-02  -6.1558699806977757e-02  -3.9564308574394948e-02  -1.7700857978062728e-01  -1.2341530952695798e-01  -1.9708728390344436e-02  -2.8926185535457262e-03  1.1226396913946562e-02  -1.6644653233038609e-01  2.1204620545270763e-02  -2.0462937615749834e-02  2.6895093728606531e-02  -7.1229855230260713e-03  3.0227172332948495e-02  -1.1313630876262966e-01  -9.5870712215462187e-02  3.1513451615397738e-02  -7.5535010890122004e-02  6.6943517129716022e-03  -4.9393324067688850e-02  3.1389193364965165e-02  2.1558992557474555e-02  -1.5889735425466844e-01  3.0423892156181982e-02  -2.5918683204536577e-02  -1.2465999275727160e-01  3.6964319621589671e-02  2.8850331362658969e-02  -3.0383489928599437e-03  5.4463669086285429e-02  5.8406348905417748e-03  2.6695757896928605e-02  1.3448425987341131e-02  7.1755591626263965e-02  -1.1932446933002494e-01  2.4039971052166147e-02  1.9001890379508897e-02  -1.0811339447425386e-01  2.3002811496497435e-02  2.0606512684927580e-02  -9.2764240949011645e-02  9.1956266683174054e-02  1.0597355107575826e-01  -1.3720324630239518e-02  1.7557932876543645e-02  1.3932780787128386e-02  2.5318441962665746e-02  -7.5308708916651604e-02  2.6247872748071381e-02  -1.5648865858153369e-01  -5.0398608733595036e-02  2.5529199971052591e-02  1.2342545836903837e-01  -3.0678775543564202e-02  1.0130418663567901e-02  2.3011308465588298e-02  -1.1122651242156377e-02  1.4692755279777762e-02  2.0125698373760253e-02  4.6401404527190500e-02  1.6568585013290876e-02  6.5361140143733981e-02  8.4137878592954685e-02  1.2440305581179539e-02  1.1573740556558497e-01  1.5758010509603700e-03  1.4856760096097107e-01  -1.6162076018852628e-01  7.9381899363350876e-03  5.6281935019093050e-03  1.3353993552681712e-01  -1.7293649199407027e-01  -1.6096189913046327e-01  -1.1933393862430937e-01  -6.2577707225957249e-02  1.1704719792863505e-03  2.6995282674794993e-02  1.3387973887619517e-01  -4.0039998233261681e-02  -6.4637764559773589e-02  -8.5820820961130764e-02  -1.0507291532317987e-01  8.2018395844899991e-02  2.6067447234347816e-02  6.2844495111749096e-02  9.6379193566118931e-02  2.4472356034473796e-02  2.2408606278900546e-02  4.5141313620879385e-02  2.5366838318017882e-02  2.7856629851087011e-02  2.9601878389716649e-02  2.9707849989478469e-02  3.0996199168043647e-02  3.1577132634296727e-02  3.1109616305933972e-02  -2.9511886869499359e-02  1.4008855928762899e-02  2.8866386998071016e-02  2.4376542702590698e-02  -3.8143027126739433e-04  1.6811607858798507e-02  4.9550552465621022e-03  -1.0457186486108969e-02  1.3172137441961353e-03  -1.4310006416407282e-02  -2.6255004430673124e-02  1.4890733765728276e-01  -3.8428994545474111e-02  -5.0135506995840233e-02  -6.0942826118522711e-02  -7.1330564208831118e-02  -8.1136845762870460e-02  -9.0452622762991305e-02  -1.4787003327408851e-01  -1.0197286462923351e-01  -1.1302561302327045e-01  -1.2386206444502890e-01  -1.3386997267297343e-01  -1.3468368665306726e-01  -9.5215548601524411e-02  -1.1533410173580211e-01  -7.3599186972273328e-02  -5.0555306674069912e-02  -1.4546352860639339e-01  -1.6810410638789267e-01  1.6514685700529125e-03  1.4841085596156217e-01  4.4273457370597926e-03  -1.6139603432573846e-01  1.4915922241735829e-01  1.3439069092474620e-03  1.4505522674414401e-01  -1.6136180336262490e-01  -1.6102356648356433e-01  -1.6056189948847455e-01  -1.6106277830826357e-01  -1.6058341882507135e-01  -1.6141011607941352e-01  -1.6074969205251730e-01  -1.6185868588050017e-01  -1.6102804666583628e-01  -1.6217358316864594e-01  -1.6122433537527059e-01  -1.6209358139849162e-01  -1.6094899515590763e-01  -1.6145690405746430e-01  -1.6017431530181234e-01  -1.6037303321375912e-01  -1.5891474269434697e-01  -1.5891186724535786e-01  -1.5728779217463629e-01  -1.5693654524963199e-01  -1.5500363077232671e-01  -1.5862704178488493e-01  -1.5545367912368166e-01  -1.5278960549260728e-01  -1.5603567259311257e-01  -1.5801943903596971e-01  -1.5301870220846187e-01  -1.5021141337617863e-01  -1.5036127691254639e-01  -1.4719929733866599e-01  -1.4722981955103134e-01  -1.4376153446837439e-01  -1.4370350656789485e-01  -1.4016353911812957e-01  -1.3977794926025269e-01  -1.3553667461436142e-01  -1.3524572348942354e-01  -1.3117489313407873e-01  -1.3047661258294213e-01  -1.2625285894196411e-01  -1.2532022693380537e-01  -1.2101646832489606e-01  -1.1986299433869665e-01  -1.1552504041533347e-01  -1.1411358605427616e-01  -1.0980762416115755e-01  -1.0810545941338069e-01  -1.0388189278941637e-01  -1.0190290175618473e-01  -9.7823208956267338e-02  -9.5522117431702538e-02  -9.1668894203167359e-02  -8.8922273600221952e-02  -1.5441490391341262e-01  -1.5627869011337645e-01  -8.5439018422669613e-02  -8.2286083329153908e-02  -7.9203121894284523e-02  -7.6067364745768501e-02  -7.3062197989802610e-02  -6.9592174762106745e-02  -6.7014735361399236e-02  -6.3237152558251269e-02  -1.4921419716752055e-01  -6.1172865731497286e-02  -5.6992323191413813e-02  -5.5241448918918017e-02  -5.0872706635167228e-02  -4.9710840588622782e-02  -4.5024433015479884e-02  -1.5190154244046586e-01  -1.5398526170613558e-01  -1.6259095339112850e-01  -4.4313360574714883e-02  -3.9361691507718434e-02  -3.9180277412186743e-02  -3.3969113422731553e-02  -3.4293830015825012e-02  -2.8877785539034927e-02  -1.5944062553246088e-01  -2.9670630711672787e-02  -2.4055298509324804e-02  -1.3959128259334935e-01  -2.5297635149520610e-02  -1.9548827362968153e-02  -2.1207488734920687e-02  -1.5351250685034802e-02  -1.7320985403050281e-02  -1.1454745151619511e-02  -1.5954312143280516e-01  -1.2626325009087530e-01  -1.3758025243269287e-02  -7.8606048801992227e-03  -1.4851462032959753e-01  -1.4992459157488988e-01  -1.4679509014337558e-01  -1.1056939757176479e-01  -1.0381740292941644e-02  -4.4133657684991183e-03  -7.3389396593042892e-03  -1.3101984571690136e-03  -4.4470232873542659e-03  1.3855681390272517e-03  -4.0186015381065726e-02  -1.7976976346479215e-03  -2.3514898035703793e-02  -5.9174800483749741e-02  -1.7654490913954664e-03  3.8611377540130028e-03  6.9961071019283821e-03  9.3229311719237786e-03  6.1786401223720170e-03  1.1426984435518896e-02  8.3643343560643180e-03  1.3394799887980468e-02  1.0341154009719097e-02  1.5116712459982039e-02  1.2153426416887821e-02  1.6703605832411542e-02  1.3858208527643644e-02  1.8102479916197216e-02  1.5340101400372329e-02  1.9381622423367335e-02  1.6816997999796194e-02  2.0648609940860745e-02  1.8137140134024687e-02  2.1695132766518323e-02  1.9379964781801259e-02  2.2607211285528329e-02  2.0378481165690503e-02  2.3437854801903090e-02  -7.8880880332481224e-02  -9.3770602910819040e-02  2.1396161964206458e-02  2.4141802058189107e-02  2.2360918986915831e-02  2.4810140143677082e-02  -1.4645901033277081e-01  -1.1194695534647385e-01  2.3221590844043061e-02  2.5365945763654970e-02  -1.2890945046738400e-01  -7.6663823203866485e-02  -1.4423023296191687e-01  -1.4525267171872919e-01  -1.5176784693521223e-01  -1.4598188185541092e-01  -1.5154848089004283e-01  -1.4603159977960697e-01  -1.5203468730682521e-01  -1.4556545967176199e-01  -1.4988979389462562e-01  -1.4406293608472537e-01  -1.4853140725077602e-01  -1.4210887415786214e-01  -1.4505736702601543e-01  -1.3942452392786212e-01  -1.4165011951353779e-01  -1.3647916289112297e-01  -1.3802579740026913e-01  -1.3319818370644010e-01  -1.3427696432964850e-01  -1.2978086614396425e-01  -1.3044477358235340e-01  -1.2623014795402487e-01  -1.2660121533045759e-01  -1.2263031955663267e-01  -1.2275162891934900e-01  -1.1903899105982116e-01  -1.1858193090951298e-01  -1.1514813996788534e-01  -1.1524442485178803e-01  -1.1164040407586086e-01  -1.1145411177052038e-01  -1.0803219251169108e-01  -1.0785577592040548e-01  -1.0446507701752182e-01  -1.0401477867223063e-01  -1.0083102326822013e-01  -1.3404530638451748e-01  -1.1126122877549791e-01  -1.2513787957309011e-01  -1.0030718652032022e-01  -9.7117550582942178e-02  -9.7398090657535116e-02  -9.3864422531211661e-02  -9.3363048687722189e-02  -9.0249519838538322e-02  -8.9562997989876519e-02  -8.6576296923008375e-02  -8.5778051638959962e-02  -8.2843216881264350e-02  -9.0014858362294836e-02  -1.5675021717125828e-01  -1.5054765804939998e-01  -8.2054249951947794e-02  -7.9054320521111526e-02  -7.9799279838835821e-02  -7.6019236268307047e-02  -7.5241771367684174e-02  -7.2259011591591121e-02  -7.1372224789860397e-02  -6.8472208629198977e-02  -1.4288455814536938e-01  -7.2773893322105127e-02  -6.7526071128390666e-02  -6.4699677846974848e-02  -1.3459313982774002e-01  -6.3794312906808551e-02  -6.0870635650864521e-02  -6.2047940367133590e-02  -5.7899704171139335e-02  -5.6932795350051399e-02  -5.3851945842781197e-02  -5.4776375663931946e-02  -5.0732355719949475e-02  -4.9821733797006260e-02  -4.6696496339956768e-02  -4.5775845468886397e-02  -4.2566966491575590e-02  -4.3512543045018968e-02  -3.9387366753375362e-02  -3.8411066674617016e-02  -3.5257230428112400e-02  -3.4318732058557094e-02  -3.1144470757792680e-02  -1.4087792416400319e-01  -1.1119404139887219e-01  -1.2632779930354898e-01  -3.0299191038550680e-02  -2.7063658191394651e-02  -2.7921056364059525e-02  -2.3687438949534543e-02  -2.2834636706993414e-02  -1.9459621503913685e-02  -2.4543672036209697e-02  2.3907876996271150e-02  2.5831134687751760e-02  2.4533994286010399e-02  2.6228423255507546e-02  2.5094864497410184e-02  2.6552467758759832e-02  -9.2704851486246131e-02  -4.9232307530916432e-02  -1.6242875783343164e-01  -1.8574351703832644e-02  -1.5266917367167168e-02  -1.0336755570538032e-01  2.1013219392381748e-02  2.5455515127790332e-02  1.1935994543826045e-02  2.5564947091492742e-02  2.6795265940354290e-02  2.7868757345663131e-02  2.7896157977555503e-02  2.6962871725520993e-02  2.7870221622229737e-02  2.7063614517605399e-02  2.7784656993560277e-02  2.7081817442377778e-02  2.7630720966196780e-02  2.7028390791492749e-02  2.7418817587537423e-02  2.6891390573100683e-02  2.7135045730633526e-02  2.6678280142623606e-02  2.6791849813318162e-02  2.6393519240749851e-02  2.6387282316308686e-02  2.6040355150097685e-02  2.5924188189836481e-02  2.5608874958630269e-02  2.5387084400760443e-02  2.5095839241616302e-02  2.4799205967199613e-02  2.4506005635618111e-02  2.4124776153430977e-02  2.3857568215388401e-02  2.3410882368358293e-02  2.3117673607481754e-02  2.2612261372960893e-02  2.2317840062098426e-02  2.1765966373478492e-02  2.7408999964243532e-02  -4.0400318254214508e-02  -7.4390345215834930e-02  -1.4258909337242078e-02  -1.0964675767818774e-02  -1.1963427710712911e-02  -7.5101777894662309e-03  -8.5532580616910648e-03  -3.9969213473954593e-03  -3.0735320351539192e-03  4.5918309517667860e-04  1.5027519100217236e-03  5.0076587197393045e-03  4.0614405669242397e-03  8.5978686312244302e-03  9.4023323422446226e-03  1.3099236351544282e-02  1.3890037768