<?xml version="1.0"?>
<VTKFile type="UnstructuredGrid"  version="0.1"  >
<UnstructuredGrid>
<Piece  NumberOfPoints="2886" NumberOfCells="5412">
<Points>
<DataArray  type="Float64"  NumberOfComponents="3"  format="ascii">0 0.1 0  0.98 0.1 0  1 0.1 0  1 0 0  1.5 0 0  3 0 0  3 0.3 0  0 0.3 0  0.01975375321854102 0.1 0  0.03918897458218897 0.1 0  0.05831079002627837 0.1 0  0.07712425666319796 0.1 0  0.0956343475259058 0.1 0  0.1138459546796227 0.1 0  0.1317638870668193 0.1 0  0.1493928840275937 0.1 0  0.1667376092280033 0.1 0  0.1838026357802664 0.1 0  0.2005924801287244 0.1 0  0.2171115811543574 0.1 0  0.2333643037107681 0.1 0  0.2493549444060462 0.1 0  0.2650877293306821 0.1 0  0.2805668058011438 0.1 0  0.2957962848620976 0.1 0  0.3107801766802674 0.1 0  0.3255224447361181 0.1 0  0.3400269848175519 0.1 0  0.3542976327080778 0.1 0  0.3683381609158136 0.1 0  0.3821522744564845 0.1 0  0.3957436316838916 0.1 0  0.4091158196437086 0.1 0  0.4222723742184605 0.1 0  0.4352167733293057 0.1 0  0.4479524348643424 0.1 0  0.4604827295467524 0.1 0  0.4728109659990664 0.1 0  0.4849404035409129 0.1 0  0.4968742471455402 0.1 0  0.508615651843175 0.1 0  0.520167721130924 0.1 0  0.5315335063628542 0.1 0  0.5427160117228604 0.1 0  0.5537181940261912 0.1 0  0.564542961924507 0.1 0  0.575193173270606 0.1 0  0.5856716438765114 0.1 0  0.5959811458006617 0.1 0  0.6061243988680743 0.1 0  0.6161040893285659 0.1 0  0.6259228503970299 0.1 0  0.6355832809287655 0.1 0  0.6450879281079505 0.1 0  0.6544393102991295 0.1 0  0.663639896558931 0.1 0  0.6726921201956305 0.1 0  0.6815983691630338 0.1 0  0.6903610031396646 0.1 0  0.6989823343332418 0.1 0  0.7074646404270378 0.1 0  0.7158101645005117 0.1 0  0.7240211149852543 0.1 0  0.7320996585612525 0.1 0  0.7400479319727645 0.1 0  0.7478680336617921 0.1 0  0.755562036504958 0.1 0  0.7631319665092091 0.1 0  0.7705798279317605 0.1 0  0.777907588066146 0.1 0  0.7851171851013118 0.1 0  0.7922105226004981 0.1 0  0.7991894774550319 0.1 0  0.8060558928136696 0.1 0  0.812811583201334 0.1 0  0.8194583352091183 0.1 0  0.8259979035038147 0.1 0  0.8324320194413813 0.1 0  0.8387623808293405 0.1 0  0.8449906627004957 0.1 0  0.8511185094880469 0.1 0  0.8571475426008311 0.1 0  0.8630793533568246 0.1 0  0.8689155114558531 0.1 0  0.8746575581239063 0.1 0  0.8803070109173519 0.1 0  0.885865363938836 0.1 0  0.8913340851680313 0.1 0  0.8967146206523592 0.1 0  0.9020083930695622 0.1 0  0.9072167995950768 0.1 0  0.9123412183131177 0.1 0  0.9173830029719022 0.1 0  0.9223434865647732 0.1 0  0.9272239785872722 0.1 0  0.9320257720706087 0.1 0  0.9367501330378739 0.1 0  0.9413983102716995 0.1 0  0.9459715351562933 0.1 0  0.9504710127113115 0.1 0  0.9548979346500661 0.1 0  0.9592534708344373 0.1 0  0.9635387708980176 0.1 0  0.9677549682252325 0.1 0  0.971903177251235 0.1 0  0.9759844952956497 0.1 0  0.9840000000000086 0.1 0  0.987999999999974 0.1 0  0.9919999999999393 0.1 0  0.9959999999999913 0.1 0  1 0.09591793123533533 0  1 0.09133596463859224 0  1 0.08619288104391448 0  1 0.08041996484521211 0  1 0.07394008421771697 0  1 0.06666666567302955 0  1 0.05850252932209174 0  1 0.04933859630113544 0  1 0.03905242821848202 0  1 0.02750659386753798 0  1 0.01454683679239736 0  1.015625 0 0  1.03125 0 0  1.046875 0 0  1.0625 0 0  1.078125 0 0  1.09375 0 0  1.109375 0 0  1.125 0 0  1.140625 0 0  1.15625 0 0  1.171875 0 0  1.1875 0 0  1.203125 0 0  1.21875 0 0  1.234375 0 0  1.25 0 0  1.265625 0 0  1.28125 0 0  1.296875 0 0  1.3125 0 0  1.328125 0 0  1.34375 0 0  1.359375 0 0  1.375 0 0  1.390625 0 0  1.40625 0 0  1.421875 0 0  1.4375 0 0  1.453125 0 0  1.46875 0 0  1.484375 0 0  1.515920751924515 0 0  1.531989369316721 0 0  1.54820720925872 0 0  1.564575665560501 0 0  1.581096138674279 0 0  1.597770029901263 0 0  1.614598783332311 0 0  1.631583831055205 0 0  1.64872661129721 0 0  1.666028606716533 0 0  1.683491276608443 0 0  1.701116134125304 0 0  1.718904673324128 0 0  1.736858414799339 0 0  1.754978895814663 0 0  1.773267661782904 0 0  1.791726281103402 0 0  1.810356325314689 0 0  1.8291593848892 0 0  1.848137076690385 0 0  1.867291007717254 0 0  1.886622833871288 0 0  1.90613418642363 0 0  1.925826753299799 0 0  1.945702199101513 0 0  1.96576223584749 0 0  1.986008569283268 0 0  2.006442931928877 0 0  2.02706707547783 0 0  2.047882750887917 0 0  2.06889175187935 0 0  2.090095860038271 0 0  2.111496891648636 0 0  2.133096679109554 0 0  2.154897066851056 0 0  2.176899916687499 0 0  2.199107102752146 0 0  2.22152053937028 0 0  2.244142122958061 0 0  2.266973806444078 0 0  2.290017523268154 0 0  2.313275249499252 0 0  2.336748971745516 0 0  2.360440702338606 0 0  2.384352453384031 0 0  2.408486280477412 0 0  2.432844240041185 0 0  2.457428414757088 0 0  2.482240901796653 0 0  2.507283830121838 0 0  2.532559332080812 0 0  2.558069568787417 0 0  2.583816724966441 0 0  2.60980299606584 0 0  2.636030600971886 0 0  2.662501790984011 0 0  2.689218818279327 0 0  2.716183964547616 0 0  2.743399548861297 0 0  2.77086788244719 0 0  2.798591312896326 0 0  2.826572223178268 0 0  2.854812990138617 0 0  2.883316031690714 0 0  2.912083780657189 0 0  2.941118704633482 0 0  2.970423276998917 0 0  3 0.02999999999994495 0  3 0.05999999999987042 0  3 0.089999999999783 0  3 0.119999999999701 0  3 0.149999999999619 0  3 0.179999999999692 0  3 0.2099999999997737 0  3 0.2399999999998511 0  3 0.2699999999999185 0  2.970138294777171 0.3 0  2.940375666438236 0.3 0  2.910711782853056 0.3 0  2.881146331305122 0.3 0  2.851678975030285 0.3 0  2.822309388626621 0.3 0  2.793037250095074 0.3 0  2.76386223529133 0.3 0  2.734784017903872 0.3 0  2.705802289276642 0.3 0  2.676916713794697 0.3 0  2.648126987654635 0.3 0  2.619432780406184 0.3 0  2.590833779385199 0.3 0  2.562329669847737 0.3 0  2.533920134950189 0.3 0  2.505604855727852 0.3 0  2.477383539822502 0.3 0  2.449255847639465 0.3 0  2.421221492569094 0.3 0  2.393280152486815 0.3 0  2.36543151914496 0.3 0  2.337675285481809 0.3 0  2.310011142385583 0.3 0  2.282438797441587 0.3 0  2.254957931061538 0.3 0  2.227568248063605 0.3 0  2.200269436651085 0.3 0  2.173061204949961 0.3 0  2.145943251515011 0.3 0  2.118915272469994 0.3 0  2.091976978084957 0.3 0  2.065128060700849 0.3 0  2.038368218849433 0.3 0  2.01169717777258 0.3 0  1.985114624111908 0.3 0  1.958620267850966 0.3 0  1.93221382054972 0.3 0  1.905894991850698 0.3 0  1.879663489459713 0.3 0  1.853519019126419 0.3 0  1.827461291053897 0.3 0  1.801490031354372 0.3 0  1.775604937580312 0.3 0  1.74980572560258 0.3 0  1.724092118631866 0.3 0  1.698463829173586 0.3 0  1.672920575782554 0.3 0  1.647462076974085 0.3 0  1.622088043536933 0.3 0  1.5967981978949 0.3 0  1.571592267767068 0.3 0  1.546469970305736 0.3 0  1.521431023814044 0.3 0  1.496475156230927 0.3 0  1.471602093687753 0.3 0  1.446811560490646 0.3 0  1.422103279101731 0.3 0  1.397476971708191 0.3 0  1.37293238939876 0.3 0  1.348469231419202 0.3 0  1.324087248732772 0.3 0  1.299786165921677 0.3 0  1.275565710847046 0.3 0  1.251425617644257 0.3 0  1.227365618676339 0.3 0  1.203385446174014 0.3 0  1.179484853067473 0.3 0  1.155663548773374 0.3 0  1.131921292279077 0.3 0  1.108257802159295 0.3 0  1.084672829009693 0.3 0  1.061166115303374 0.3 0  1.037737392995421 0.3 0  1.01438640299116 0.3 0  0.991112899770314 0.3 0  0.9679166155523955 0.3 0  0.944797284182564 0.3 0  0.921754678526042 0.3 0  0.8987885143602501 0.3 0  0.8758985548820624 0.3 0  0.8530845484099929 0.3 0  0.8303462351786988 0.3 0  0.8076833651172373 0.3 0  0.7850956864865304 0.3 0  0.7625829601354557 0.3 0  0.7401449314598274 0.3 0  0.717781337993959 0.3 0  0.6954919649675473 0.3 0  0.6732765357561226 0.3 0  0.6511348120768439 0.3 0  0.6290665642016573 0.3 0  0.6070715355430467 0.3 0  0.5851494825775325 0.3 0  0.5633001690203812 0.3 0  0.5415233562273221 0.3 0  0.5198187909431873 0.3 0  0.4981862401387795 0.3 0  0.4766254686134248 0.3 0  0.4551362360485234 0.3 0  0.4337182975262159 0.3 0  0.4123714223228037 0.3 0  0.3910953802377493 0.3 0  0.3698899313205595 0.3 0  0.3487548463710963 0.3 0  0.3276898864081783 0.3 0  0.3066948129116018 0.3 0  0.2857694003037476 0.3 0  0.2649134227095047 0.3 0  0.2441266417321288 0.3 0  0.2234088223399122 0.3 0  0.2027597568977288 0.3 0  0.1821792020676698 0.3 0  0.1616669305402443 0.3 0  0.1412227158799362 0.3 0  0.12084633013886 0.3 0  0.1005375673448281 0.3 0  0.08029618164595353 0.3 0  0.06012194778526769 0.3 0  0.04001466495039718 0.3 0  0.01997408913631205 0.3 0  0 0.2800000000000553 0  0 0.2600000000001105 0  0 0.2400000000001658 0  0 0.2200000000002211 0  0 0.2000000000002764 0  0 0.1800000000002244 0  0 0.1600000000001691 0  0 0.140000000000115 0  0 0.1200000000000564 0  1.13346801534201 0.01255848438672509 0  1.003577645172735 0.09351054173913405 0  0.9777559943702486 0.1034978156913738 0  0.9524533750752109 0.1040889939962738 0  0.9296242411226409 0.1041520033606139 0  0.9046110503652111 0.104409422380137 0  0.8777709649694228 0.1053360318797398 0  0.8483859145648608 0.1061007868330701 0  0.8162363822948977 0.1052777104363292 0  0.7893110024210437 0.1060761643971561 0  0.7587949382612539 0.1067265405088633 0  0.7280603867732535 0.1069398153264939 0  0.6947001989413015 0.1075609887579097 0  0.6590363283767549 0.1076715322596598 0  0.6210028614493155 0.1072970410408442 0  1.1953125 0.01353164693413185 0  1.258193991486058 0.01269648635163345 0  1.3201967268638 0.01407907077719561 0  1.383538555392096 0.01434101079053473 0  1.445312500000001 0.01303671693628424 0  1.508925448095738 0.01398525724792267 0  0.9939176689634008 0.1034638089837981 0  1.120967497222226 0.2796788492172345 0  1.572835902117391 0.01424132418857359 0  1.637573277451887 0.01212536916586023 0  1.709730776795181 0.01466855431023635 0  1.005631976950563 0.07074019818158772 0  1.784944696816299 0.01454708406461822 0  0.5805605730631225 0.1101465090472147 0  1.855621181165637 0.01550931272897607 0  0.5366111276616774 0.1096761308243709 0  1.935200147913231 0.01760344159641829 0  1.214922267975168 0.2799787705802257 0  1.31178773425331 0.2792
[...]
<PointData  Scalars="pressure"> 
<DataArray  type="Float64"  Name="pressure"  format="ascii">1.6054606755881778e-01  -1.6455764133034551e-01  -2.1690023453694740e-01  -1.6157625931707095e-01  -3.9658063540123016e-02  0.0000000000000000e+00  0.0000000000000000e+00  1.6055318187930973e-01  1.5461994536587800e-01  1.4878931352677133e-01  1.4305260575752640e-01  1.3740829765609397e-01  1.3185487611412303e-01  1.2639086247642345e-01  1.2101482185717306e-01  1.1572528503438929e-01  1.1052085644810025e-01  1.0540014788607033e-01  1.0036175615101292e-01  9.5404331928326258e-02  9.0526561053894034e-02  8.5727083205980603e-02  8.1004601700752396e-02  7.6357900358787589e-02  7.1785589232197564e-02  6.7286475171615470e-02  6.2859318290698823e-02  5.8502823179176329e-02  5.4215827442891537e-02  4.9997199548125579e-02  4.5845600346663608e-02  4.1759948245418600e-02  3.7738963841597500e-02  3.3781553400539670e-02  2.9886668419328927e-02  2.6053052181594989e-02  2.2279530671863272e-02  1.8565059048401795e-02  1.4908513231730437e-02  1.1308709403870394e-02  7.7646589903265931e-03  4.2751380846285745e-03  8.3912932152926500e-04  -2.5445303657156580e-03  -5.8769032586978654e-03  -9.1586895852382166e-03  -1.2391663272450093e-02  -1.5576443990834549e-02  -1.8714153052901028e-02  -2.1806036333000354e-02  -2.4853107308397560e-02  -2.7855844745667626e-02  -3.0816234924591148e-02  -3.3734783354855233e-02  -3.6612603301948682e-02  -3.9450819242298832e-02  -4.2250410394626507e-02  -4.5012420228623090e-02  -4.7738020240652150e-02  -5.0428133454472703e-02  -5.3083723106106803e-02  -5.5705739532820375e-02  -5.8295729767358154e-02  -6.0854090756315725e-02  -6.3382075379684044e-02  -6.5880335467369919e-02  -6.8350882435392085e-02  -7.0794104166045022e-02  -7.3210291234111838e-02  -7.5601148404781465e-02  -7.7968217090936071e-02  -8.0311223960571845e-02  -8.2632210403984094e-02  -8.4931863075387665e-02  -8.7210504258630611e-02  -8.9469685766775428e-02  -9.1710292214815206e-02  -9.3933241555194655e-02  -9.6140214839226606e-02  -9.8331357370981184e-02  -1.0050707557311757e-01  -1.0266811303858507e-01  -1.0481773327294078e-01  -1.0695509565833181e-01  -1.0908088232578261e-01  -1.1119689329390683e-01  -1.1330352336302325e-01  -1.1540168366113868e-01  -1.1749245389341882e-01  -1.1957759730248545e-01  -1.2165755841856585e-01  -1.2373253912502986e-01  -1.2580475365027302e-01  -1.2787500835661558e-01  -1.2994430972210574e-01  -1.3201387765515313e-01  -1.3408475972422984e-01  -1.3615836793143465e-01  -1.3823612657766673e-01  -1.4031958214912155e-01  -1.4241018744683159e-01  -1.4450925036404313e-01  -1.4661626378791484e-01  -1.4871563318219538e-01  -1.5108344929081444e-01  -1.5198625539657795e-01  -1.5518733151911274e-01  -1.5120376243453543e-01  -1.5642209872955731e-01  -1.5450242179818477e-01  -2.0376905547055299e-01  -1.8207766495646488e-01  -1.7545513659539588e-01  -1.7064393895645091e-01  -1.6739939328977685e-01  -1.6496549880603045e-01  -1.6314309542650285e-01  -1.6180878825228251e-01  -1.6100862538124369e-01  -1.6081436742673533e-01  -1.6122318167576899e-01  -1.6201823234585813e-01  -1.6239565693079144e-01  -1.6219231443015039e-01  -1.6152377753757646e-01  -1.6048072315856188e-01  -1.5910657154428912e-01  -1.5738577913060506e-01  -1.5530511330695743e-01  -1.5289313308133898e-01  -1.5016660497787679e-01  -1.4712885918633684e-01  -1.4379299952716626e-01  -1.4016942307750474e-01  -1.3626955576413685e-01  -1.3211330516173309e-01  -1.2771306006908609e-01  -1.2308073278362301e-01  -1.1823438186789009e-01  -1.1319273655562294e-01  -1.0796592021116225e-01  -1.0258460519962187e-01  -9.7066973835197329e-02  -9.1429199604092223e-02  -8.5702999757557546e-02  -7.9907232158676414e-02  -7.4072672386237284e-02  -6.8222227140605871e-02  -6.2379924902180452e-02  -5.6578783050799893e-02  -5.0840802890325200e-02  -4.5193338124771658e-02  -3.4159196365428940e-02  -2.8784335731694748e-02  -2.3543609159573865e-02  -1.8472787020290812e-02  -1.3600015375744222e-02  -8.9272863626663115e-03  -4.4826305587469910e-03  -2.7174907591612479e-04  3.6556469669163714e-03  7.3251603726204066e-03  1.0736379407854844e-02  1.3868533670122507e-02  1.6724669292771825e-02  1.9312925082000935e-02  2.1638335511513253e-02  2.3707108338129831e-02  2.5536112141656304e-02  2.7127038470960201e-02  2.8495264706766516e-02  2.9673205789577144e-02  3.0649854740419601e-02  3.1456730496241078e-02  3.2108367292012066e-02  3.2613309917215283e-02  3.2993805975238932e-02  3.3254230916810054e-02  3.3426786696023295e-02  3.3501473282504995e-02  3.3499520370002346e-02  3.3425848831882855e-02  3.3287776810327394e-02  3.3094541754888129e-02  3.2855111110970614e-02  3.2573302177353186e-02  3.2249354166147964e-02  3.1890255857216110e-02  3.1496327911442128e-02  3.1070285237008412e-02  3.0613054235283529e-02  3.0125150204495497e-02  2.9607279614520077e-02  2.9059788021213760e-02  2.8481986460939489e-02  2.7875084105163359e-02  2.7237281357395397e-02  2.6568268289910577e-02  2.5869860329922830e-02  2.5138278951500913e-02  2.4371813381242530e-02  2.3574200490117173e-02  2.2736571144982835e-02  2.1862660605919303e-02  2.0942973433009441e-02  1.9980414404608272e-02  1.8965750088015675e-02  1.7892745376180675e-02  1.6765149320207333e-02  1.5568501917126503e-02  1.4309444608050205e-02  1.2980884572606171e-02  1.1580196288689689e-02  1.0108488959710404e-02  8.5697020892763365e-03  6.9716326753059259e-03  5.3078888889095946e-03  3.6023388815414900e-03  1.8407551736526794e-03  0.0000000000000000e+00  0.0000000000000000e+00  0.0000000000000000e+00  0.0000000000000000e+00  0.0000000000000000e+00  0.0000000000000000e+00  0.0000000000000000e+00  0.0000000000000000e+00  0.0000000000000000e+00  1.8908881931556200e-03  3.6461716886697433e-03  5.3711882186524267e-03  7.0488966597508137e-03  8.6881985595298663e-03  1.0292853389356349e-02  1.1865691581021576e-02  1.3407245711301320e-02  1.4914987765879927e-02  1.6385319302746115e-02  1.7811007039244191e-02  1.9185376043634645e-02  2.0498080932513221e-02  2.1740786276352311e-02  2.2903415699929992e-02  2.3974920845300091e-02  2.4951512140057884e-02  2.5819381252242472e-02  2.6572454633022793e-02  2.7204160478347415e-02  2.7708117959651488e-02  2.8078734595247887e-02  2.8312059648257507e-02  2.8398517733618050e-02  2.8338546966081249e-02  2.8121992528488848e-02  2.7747566657682857e-02  2.7205470229983160e-02  2.6491372907641642e-02  2.5603022434096987e-02  2.4530174024950158e-02  2.3267250260361572e-02  2.1829481676347816e-02  2.0204002096902939e-02  1.8363502225828301e-02  1.6348336168584974e-02  1.4136753343182061e-02  1.1729674163425959e-02  9.1295040373618221e-03  6.3431770374213752e-03  3.3646415500645970e-03  2.0659434697592387e-04  -3.1380531932508745e-03  -6.6580126712610021e-03  -1.0363945085936259e-02  -1.4240146104045550e-02  -1.8286872105298363e-02  -2.2495117100191715e-02  -2.6868582739358656e-02  -3.1393176036504815e-02  -3.6066396374912747e-02  -4.0877119790274856e-02  -4.5812652987001642e-02  -5.0864577187233119e-02  -5.6017397811120882e-02  -6.1248289786184441e-02  -6.6499749347624842e-02  -7.1815023871929159e-02  -7.7111816968587057e-02  -8.2330533962875069e-02  -8.7473611607743806e-02  -9.2469987100298495e-02  -9.7298472857187748e-02  -1.0185315470551098e-01  -1.0612633164364001e-01  -1.1000700092987847e-01  -1.1348248984100891e-01  -1.1644088730268083e-01  -1.1888562118191170e-01  -1.2068396728780965e-01  -1.2185081426295152e-01  -1.2231628969104563e-01  -1.2195479476745166e-01  -1.2093783310548166e-01  -1.1913842774241100e-01  -1.1656817533639571e-01  -1.1334772254939479e-01  -1.0950499354656541e-01  -1.0516560595201481e-01  -1.0040005766283434e-01  -9.5210049200552940e-02  -8.9728446653791066e-02  -8.3994282195704553e-02  -7.8097234260817161e-02  -7.2042020510183408e-02  -6.5855906044403528e-02  -5.9589495074782770e-02  -5.3255669587061114e-02  -4.6865112223351414e-02  -4.0440700259074272e-02  -3.3987420672879659e-02  -2.7522984324014624e-02  -2.1050274713069837e-02  -1.4571783693085446e-02  -8.0985850132916596e-03  -1.6319036428866080e-03  4.8270893453527947e-03  1.1275018795889352e-02  1.7708892570575899e-02  2.4127570834666531e-02  3.0530559876496329e-02  3.6916371497480970e-02  4.3284828223963949e-02  4.9634363289193677e-02  5.5965327015357370e-02  6.2277013706777240e-02  6.8569163896870400e-02  7.4841684863718852e-02  8.1094279859788981e-02  8.7326900800283630e-02  9.3539516582378399e-02  9.9732034992473670e-02  1.0590443216711969e-01  1.1205671043946522e-01  1.1818888258181066e-01  1.2430092950286627e-01  1.3039292177907760e-01  1.3646488169613558e-01  1.4251683901005444e-01  1.4854884830471210e-01  1.5456094537307188e-01  1.6055315443903906e-01  1.6055285890144474e-01  1.6055213682749603e-01  1.6055100312951556e-01  1.6054962594257310e-01  1.6054824733387371e-01  1.6054711126610791e-01  1.6054638438214427e-01  1.6054608991001995e-01  -1.5373321270411405e-01  -1.8666044214001046e-01  -1.5476647142705030e-01  -1.4138921596231999e-01  -1.3107552638164785e-01  -1.2069161132513707e-01  -1.1031292448985025e-01  -9.9590194833294329e-02  -8.8409105103956720e-02  -7.9382693564427023e-02  -6.9416893143620165e-02  -5.9592046650638560e-02  -4.9105349016520070e-02  -3.8040056769615603e-02  -2.6357260431139763e-02  -1.4183583380177181e-01  -1.2526931846608733e-01  -1.0541511982749610e-01  -8.2742940607952883e-02  -5.9755066915473325e-02  -3.6940033950517030e-02  -1.6703780262611129e-01  -1.2068830935838178e-01  -1.6433045295897345e-02  7.4570661318711833e-04  1.4882606083190459e-02  -1.6688000190547270e-01  2.4550729442000607e-02  -1.4028362096172720e-02  2.9791342208802921e-02  -7.0057131293623995e-04  3.2590344367434250e-02  -1.1117355709485607e-01  -9.4242905687134698e-02  3.3380276375396575e-02  -7.4024042924580702e-02  1.3108899163393467e-02  -4.7936502858873929e-02  3.2897554584417336e-02  2.7968424115345940e-02  -1.5930683798120532e-01  3.1629435324102562e-02  -2.4456748704083351e-02  -1.2097701444592965e-01  4.3370627907887468e-02  2.9820136789912861e-02  -1.4184801895399111e-03  6.0867996187296970e-02  7.5887550180660313e-03  2.7490409487374322e-02  1.5333918705715561e-02  7.8158869077958631e-02  -1.1466563380575701e-01  2.4760317820197865e-02  2.0997400098979234e-02  -1.0267482917255755e-01  2.5066789247325270e-02  2.1371408764150755e-02  -8.6857065054158369e-02  9.8358921755358472e-02  1.1237598296615632e-01  -1.2200470581558487e-02  1.8389698528999174e-02  1.4763193613074835e-02  2.7398942319225045e-02  -6.9155569768318034e-02  2.8247475970007811e-02  -1.4764591846587552e-01  -4.4095278547291582e-02  2.7360448019416242e-02  1.2982774737286634e-01  -2.4325032843149411e-02  1.0819192741776193e-02  2.4411395417930849e-02  -4.7445002871848259e-03  2.1085370128861611e-02  2.1065837925688266e-02  5.2800475780520405e-02  1.7048673914067447e-02  7.1761717080846305e-02  9.0539205593288430e-02  1.2593107109061693e-02  1.2213923756595761e-01  1.6169678355857180e-03  1.5496966014177987e-01  -1.6200985451082137e-01  7.9582853182301704e-03  6.0186846516269536e-03  1.3994185514569543e-01  -1.7346857455185871e-01  -1.6136263879662743e-01  -1.1705322610752916e-01  -5.6329999984843962e-02  7.5571829314973644e-03  3.3391273417689861e-02  1.4028198813108905e-01  -3.8591345433532633e-02  -6.3152968028028236e-02  -8.4267834412584675e-02  -1.0332126048661019e-01  8.8421299484851251e-02  2.8125356803920452e-02  6.9248232346905261e-02  1.0278079254018056e-01  2.6118178894699171e-02  2.3137441244084952e-02  5.1546542043704235e-02  2.6108517910784935e-02  2.8730350694707123e-02  3.6009469348867139e-02  3.0788458719543520e-02  3.2343566170724640e-02  3.3272623057879085e-02  3.3207319991017656e-02  -2.6538225498067489e-02  2.0420554483734088e-02  3.1496654186456988e-02  2.7511031827065206e-02  6.0366897157888531e-03  2.0344423265257820e-02  8.6488268499118302e-03  -6.9512387848537664e-03  1.3880240574325941e-03  -7.8817518740003905e-03  -1.9813196081965436e-02  1.5530950370511828e-01  -3.1966270335260852e-02  -4.3642899721893162e-02  -5.4410249071718875e-02  -6.4743953210535013e-02  -7.4480560693121839e-02  -8.3708027398916529e-02  -1.4826047806839585e-01  -9.5080159986455012e-02  -1.0593839451196649e-01  -1.1651764661621870e-01  -1.3412601380730019e-01  -1.2699521238525427e-01  -9.4587645965790570e-02  -1.1524928877123779e-01  -7.2241183348869864e-02  -4.8337020523604980e-02  -1.3730489564967188e-01  -1.5499835388208658e-01  1.6620317824365468e-03  1.5481282405987015e-01  4.4328636384150261e-03  -1.6178926532833698e-01  1.5556144647460385e-01  1.4270672222686082e-03  1.5145716505435455e-01  -1.6175867666286572e-01  -1.6141982953949693e-01  -1.6096145724692679e-01  -1.6146191800802359e-01  -1.6098597984677784e-01  -1.6181615559203291e-01  -1.6115901765566318e-01  -1.6227483182592756e-01  -1.6144688591035591e-01  -1.6260088538336609e-01  -1.6165410944441988e-01  -1.6253072803812743e-01  -1.6138886962212823e-01  -1.6190028149224667e-01  -1.6062161507769460e-01  -1.6081161327464019e-01  -1.5935788891286062e-01  -1.5931794326225668e-01  -1.5769278550878416e-01  -1.5723021146571931e-01  -1.5530546714957039e-01  -1.5890272260897045e-01  -1.5587189702010812e-01  -1.5309243564707720e-01  -1.5609521601640153e-01  -1.5802703810019228e-01  -1.5342484662371209e-01  -1.5050431487428628e-01  -1.5076140579866934e-01  -1.4747012150900088e-01  -1.4761254326336701e-01  -1.4399247409940147e-01  -1.4405712324205952e-01  -1.4036435033316927e-01  -1.4009273435964567e-01  -1.3565324245573579e-01  -1.3549645262398408e-01  -1.3124004933989264e-01  -1.3065245020133492e-01  -1.2623140312509185e-01  -1.2540249861846359e-01  -1.2088967182422761e-01  -1.1983244107230115e-01  -1.1527773348050853e-01  -1.1395048863270339e-01  -1.0942631199998706e-01  -1.0779111415070158e-01  -1.0334984060155210e-01  -1.0141960554504527e-01  -9.7130814227720505e-02  -9.4849718992053522e-02  -9.0808144568772162e-02  -8.8059741173448600e-02  -1.5409436419695777e-01  -1.5580632820459880e-01  -8.4398245218086768e-02  -8.1211689098112425e-02  -7.7989243399654504e-02  -7.4796875157685141e-02  -7.1674235361323752e-02  -6.8117798152913259e-02  -6.5463295318234582e-02  -6.1565937880370819e-02  -1.4931834007927722e-01  -5.9470373405337590e-02  -5.5134677035493927e-02  -5.3408173907765248e-02  -4.8844820593431738e-02  -4.7748106029551464e-02  -4.2844237574039087e-02  -1.5105705043861423e-01  -1.5285786510852281e-01  -1.6303114224276452e-01  -4.2249174236531378e-02  -3.7050343485058632e-02  -3.7037174772907681e-02  -3.1551699351545032e-02  -3.2091686331952203e-02  -2.6379211178404804e-02  -1.5923471456432106e-01  -2.7431719249861909e-02  -2.1501220674761557e-02  -1.3957137845828957e-01  -2.3041628697610912e-02  -1.6963754161086843e-02  -1.8950951409472748e-02  -1.2758225552192387e-02  -1.5073989609029018e-02  -8.8731513943392255e-03  -1.5998701426978448e-01  -1.2605432705200456e-01  -1.1538845816978812e-02  -5.3086351711346402e-03  -1.4703123894445411e-01  -1.4807553935930531e-01  -1.4557605949453914e-01  -1.1005383308911044e-01  -8.1956697569239515e-03  -1.8989485368375418e-03  -5.2012581553730784e-03  1.1516466389882799e-03  -2.3545434587318283e-03  3.7833443982807371e-03  -3.7770088660157720e-02  1.0962950140565671e-03  -2.0716039937602938e-02  -5.7353189464558023e-02  2.8216738822539497e-04  6.1928717661353279e-03  9.6922132666104940e-03  1.1935971322386395e-02  8.4477746014916602e-03  1.3955899585748183e-02  1.0576745593573281e-02  1.5839282153981601e-02  1.2496615103922427e-02  1.7472502152879883e-02  1.4255748079520736e-02  1.8980152608667242e-02  1.5914868064808275e-02  2.0302737053365275e-02  1.7353017285454658e-02  2.1513162776768173e-02  1.8796140338456981e-02  2.2721883540109827e-02  2.0086501075553646e-02  2.3711284355069154e-02  2.1304966496041512e-02  2.4571420533818736e-02  2.2281414398517059e-02  2.5356877488241364e-02  -7.7728414186581996e-02  -9.2853677229862791e-02  2.3283506481515847e-02  2.6019884179251537e-02  2.4235129066649940e-02  2.6653367020359441e-02  -1.4688009607618230e-01  -1.1179890583259129e-01  2.5084507705496025e-02  2.7175910953649036e-02  -1.2912128362092226e-01  -7.5337825683593609e-02  -1.4208819156327315e-01  -1.4267794005997098e-01  -1.4938319514298118e-01  -1.4284619236694848e-01  -1.4835841932468705e-01  -1.4225700151462764e-01  -1.4796375233787329e-01  -1.4109812467766417e-01  -1.4497735127529762e-01  -1.3894985965679921e-01  -1.4288863369989668e-01  -1.3644261034289157e-01  -1.3884219495918382e-01  -1.3333062405187510e-01  -1.3505815451518438e-01  -1.3007767120826683e-01  -1.3120916308491340e-01  -1.2659721634456234e-01  -1.2733848615275281e-01  -1.2306200522660488e-01  -1.2345488365566586e-01  -1.1944766916727666e-01  -1.1960032327971490e-01  -1.1581873937588431e-01  -1.1576435300230413e-01  -1.1222035196597999e-01  -1.1162819360925377e-01  -1.0834954898632568e-01  -1.0859191720279883e-01  -1.0497673320976252e-01  -1.0466725784003673e-01  -1.0136552199900027e-01  -1.0107591784223573e-01  -9.7799536976748633e-02  -9.7260093101775816e-02  -9.4175752480190708e-02  -1.2816159042165848e-01  -1.0476148373719631e-01  -1.1861870115303982e-01  -9.3576797098220116e-02  -9.0474258856712828e-02  -9.0841943275969061e-02  -8.7307553475246616e-02  -8.6732627131773127e-02  -8.3691788284708218e-02  -8.2946742998646059e-02  -8.0022884392017324e-02  -7.9176651219449320e-02  -7.6298935538367918e-02  -8.3532451886552186e-02  -1.5339717925985419e-01  -1.4414061936126282e-01  -7.5467675237448989e-02  -7.2517692806311790e-02  -7.3310088201839180e-02  -6.9531880396308768e-02  -6.8712554378995080e-02  -6.5772026994727756e-02  -6.4851333975800091e-02  -6.1988068359127235e-02  -1.3576352125604854e-01  -6.6330004431587916e-02  -6.1013593024772661e-02  -5.8218498329107672e-02  -1.2736927952292806e-01  -5.7289930569900366e-02  -5.4394030550671921e-02  -5.5597174264998529e-02  -5.1450095647065409e-02  -5.0460459423877148e-02  -4.7402742472011559e-02  -4.8352716170573483e-02  -4.4305355718091535e-02  -4.3373387051413123e-02  -4.0267340780947035e-02  -3.9328964157151279e-02  -3.6136593805981936e-02  -3.7100920395751649e-02  -3.2972116243130282e-02  -3.1980308138785184e-02  -2.8839557134733539e-02  -2.7888445759062925e-02  -2.4725469012123386e-02  -1.3722324022491564e-01  -1.0429843606547590e-01  -1.1917765869960638e-01  -2.3869795061691367e-02  -2.0643954506214441e-02  -2.1512353557438049e-02  -1.7276655650665943e-02  -1.6414849514686095e-02  -1.3047324225964737e-02  -1.8143947364936235e-02  2.5763252155876395e-02  2.7613745143318269e-02  2.6383130897831359e-02  2.7984410339695901e-02  2.6937603153096523e-02  2.8284520877952357e-02  -8.6020754618443898e-02  -4.7395023117744219e-02  -1.6284261884624093e-01  -1.2154826827869392e-02  -8.8538450129374124e-03  -9.6550208473255864e-02  2.3440862893997248e-02  2.7434738458370727e-02  1.4881760305981926e-02  2.7401274698873403e-02  2.8504200024389519e-02  2.9467595329259501e-02  2.9456542084642590e-02  2.8649900990528280e-02  2.9392724834837854e-02  2.8727014580354614e-02  2.9269527344692039e-02  2.8722269679194522e-02  2.9081129074138210e-02  2.8643670940101687e-02  2.8833842560807704e-02  2.8481620712289140e-02  2.8516386245031968e-02  2.8243900661569541e-02  2.8138673245387571e-02  2.7930302050195255e-02  2.7699470640471364e-02  2.7542536863976071e-02  2.7199461983896268e-02  2.7068844893061415e-02  2.6624508505340226e-02  2.6512862213892784e-02  2.5997228968158082e-02  2.5875364002107319e-02  2.5281443660390264e-02  2.5168491217466449e-02  2.4523233417865598e-02  2.4353135258114795e-02  2.3674598669910778e-02  2.3493222549346542e-02  2.2778164067163775e-02  2.9141811899853116e-02  -3.4003721258110797e-02  -6.7827761211455145e-02  -7.8399720089197093e-03  -4.5512946814136859e-03  -5.5562839326777167e-03  -1.1019118111477019e-03  -2.1513120431380273e-03  2.4068655462136110e-03  3.3354752872639709e-03  6.8642715067315481e-03  7.9121213526382704e-03  1.1413650772863840e-02  1.0463246343765775e-02  1.5000957135912839e-02  1.5808858840002212e-02  1.9503240931601835e-02  2.0296786573194104e-02  