<?xml version="1.0"?>
<VTKFile type="UnstructuredGrid"  version="0.1"  >
<UnstructuredGrid>
<Piece  NumberOfPoints="2886" NumberOfCells="5412">
<Points>
<DataArray  type="Float64"  NumberOfComponents="3"  format="ascii">0 0.1 0  0.98 0.1 0  1 0.1 0  1 0 0  1.5 0 0  3 0 0  3 0.3 0  0 0.3 0  0.01975375321854102 0.1 0  0.03918897458218897 0.1 0  0.05831079002627837 0.1 0  0.07712425666319796 0.1 0  0.0956343475259058 0.1 0  0.1138459546796227 0.1 0  0.1317638870668193 0.1 0  0.1493928840275937 0.1 0  0.1667376092280033 0.1 0  0.1838026357802664 0.1 0  0.2005924801287244 0.1 0  0.2171115811543574 0.1 0  0.2333643037107681 0.1 0  0.2493549444060462 0.1 0  0.2650877293306821 0.1 0  0.2805668058011438 0.1 0  0.2957962848620976 0.1 0  0.3107801766802674 0.1 0  0.3255224447361181 0.1 0  0.3400269848175519 0.1 0  0.3542976327080778 0.1 0  0.3683381609158136 0.1 0  0.3821522744564845 0.1 0  0.3957436316838916 0.1 0  0.4091158196437086 0.1 0  0.4222723742184605 0.1 0  0.4352167733293057 0.1 0  0.4479524348643424 0.1 0  0.4604827295467524 0.1 0  0.4728109659990664 0.1 0  0.4849404035409129 0.1 0  0.4968742471455402 0.1 0  0.508615651843175 0.1 0  0.520167721130924 0.1 0  0.5315335063628542 0.1 0  0.5427160117228604 0.1 0  0.5537181940261912 0.1 0  0.564542961924507 0.1 0  0.575193173270606 0.1 0  0.5856716438765114 0.1 0  0.5959811458006617 0.1 0  0.6061243988680743 0.1 0  0.6161040893285659 0.1 0  0.6259228503970299 0.1 0  0.6355832809287655 0.1 0  0.6450879281079505 0.1 0  0.6544393102991295 0.1 0  0.663639896558931 0.1 0  0.6726921201956305 0.1 0  0.6815983691630338 0.1 0  0.6903610031396646 0.1 0  0.6989823343332418 0.1 0  0.7074646404270378 0.1 0  0.7158101645005117 0.1 0  0.7240211149852543 0.1 0  0.7320996585612525 0.1 0  0.7400479319727645 0.1 0  0.7478680336617921 0.1 0  0.755562036504958 0.1 0  0.7631319665092091 0.1 0  0.7705798279317605 0.1 0  0.777907588066146 0.1 0  0.7851171851013118 0.1 0  0.7922105226004981 0.1 0  0.7991894774550319 0.1 0  0.8060558928136696 0.1 0  0.812811583201334 0.1 0  0.8194583352091183 0.1 0  0.8259979035038147 0.1 0  0.8324320194413813 0.1 0  0.8387623808293405 0.1 0  0.8449906627004957 0.1 0  0.8511185094880469 0.1 0  0.8571475426008311 0.1 0  0.8630793533568246 0.1 0  0.8689155114558531 0.1 0  0.8746575581239063 0.1 0  0.8803070109173519 0.1 0  0.885865363938836 0.1 0  0.8913340851680313 0.1 0  0.8967146206523592 0.1 0  0.9020083930695622 0.1 0  0.9072167995950768 0.1 0  0.9123412183131177 0.1 0  0.9173830029719022 0.1 0  0.9223434865647732 0.1 0  0.9272239785872722 0.1 0  0.9320257720706087 0.1 0  0.9367501330378739 0.1 0  0.9413983102716995 0.1 0  0.9459715351562933 0.1 0  0.9504710127113115 0.1 0  0.9548979346500661 0.1 0  0.9592534708344373 0.1 0  0.9635387708980176 0.1 0  0.9677549682252325 0.1 0  0.971903177251235 0.1 0  0.9759844952956497 0.1 0  0.9840000000000086 0.1 0  0.987999999999974 0.1 0  0.9919999999999393 0.1 0  0.9959999999999913 0.1 0  1 0.09591793123533533 0  1 0.09133596463859224 0  1 0.08619288104391448 0  1 0.08041996484521211 0  1 0.07394008421771697 0  1 0.06666666567302955 0  1 0.05850252932209174 0  1 0.04933859630113544 0  1 0.03905242821848202 0  1 0.02750659386753798 0  1 0.01454683679239736 0  1.015625 0 0  1.03125 0 0  1.046875 0 0  1.0625 0 0  1.078125 0 0  1.09375 0 0  1.109375 0 0  1.125 0 0  1.140625 0 0  1.15625 0 0  1.171875 0 0  1.1875 0 0  1.203125 0 0  1.21875 0 0  1.234375 0 0  1.25 0 0  1.265625 0 0  1.28125 0 0  1.296875 0 0  1.3125 0 0  1.328125 0 0  1.34375 0 0  1.359375 0 0  1.375 0 0  1.390625 0 0  1.40625 0 0  1.421875 0 0  1.4375 0 0  1.453125 0 0  1.46875 0 0  1.484375 0 0  1.515920751924515 0 0  1.531989369316721 0 0  1.54820720925872 0 0  1.564575665560501 0 0  1.581096138674279 0 0  1.597770029901263 0 0  1.614598783332311 0 0  1.631583831055205 0 0  1.64872661129721 0 0  1.666028606716533 0 0  1.683491276608443 0 0  1.701116134125304 0 0  1.718904673324128 0 0  1.736858414799339 0 0  1.754978895814663 0 0  1.773267661782904 0 0  1.791726281103402 0 0  1.810356325314689 0 0  1.8291593848892 0 0  1.848137076690385 0 0  1.867291007717254 0 0  1.886622833871288 0 0  1.90613418642363 0 0  1.925826753299799 0 0  1.945702199101513 0 0  1.96576223584749 0 0  1.986008569283268 0 0  2.006442931928877 0 0  2.02706707547783 0 0  2.047882750887917 0 0  2.06889175187935 0 0  2.090095860038271 0 0  2.111496891648636 0 0  2.133096679109554 0 0  2.154897066851056 0 0  2.176899916687499 0 0  2.199107102752146 0 0  2.22152053937028 0 0  2.244142122958061 0 0  2.266973806444078 0 0  2.290017523268154 0 0  2.313275249499252 0 0  2.336748971745516 0 0  2.360440702338606 0 0  2.384352453384031 0 0  2.408486280477412 0 0  2.432844240041185 0 0  2.457428414757088 0 0  2.482240901796653 0 0  2.507283830121838 0 0  2.532559332080812 0 0  2.558069568787417 0 0  2.583816724966441 0 0  2.60980299606584 0 0  2.636030600971886 0 0  2.662501790984011 0 0  2.689218818279327 0 0  2.716183964547616 0 0  2.743399548861297 0 0  2.77086788244719 0 0  2.798591312896326 0 0  2.826572223178268 0 0  2.854812990138617 0 0  2.883316031690714 0 0  2.912083780657189 0 0  2.941118704633482 0 0  2.970423276998917 0 0  3 0.02999999999994495 0  3 0.05999999999987042 0  3 0.089999999999783 0  3 0.119999999999701 0  3 0.149999999999619 0  3 0.179999999999692 0  3 0.2099999999997737 0  3 0.2399999999998511 0  3 0.2699999999999185 0  2.970138294777171 0.3 0  2.940375666438236 0.3 0  2.910711782853056 0.3 0  2.881146331305122 0.3 0  2.851678975030285 0.3 0  2.822309388626621 0.3 0  2.793037250095074 0.3 0  2.76386223529133 0.3 0  2.734784017903872 0.3 0  2.705802289276642 0.3 0  2.676916713794697 0.3 0  2.648126987654635 0.3 0  2.619432780406184 0.3 0  2.590833779385199 0.3 0  2.562329669847737 0.3 0  2.533920134950189 0.3 0  2.505604855727852 0.3 0  2.477383539822502 0.3 0  2.449255847639465 0.3 0  2.421221492569094 0.3 0  2.393280152486815 0.3 0  2.36543151914496 0.3 0  2.337675285481809 0.3 0  2.310011142385583 0.3 0  2.282438797441587 0.3 0  2.254957931061538 0.3 0  2.227568248063605 0.3 0  2.200269436651085 0.3 0  2.173061204949961 0.3 0  2.145943251515011 0.3 0  2.118915272469994 0.3 0  2.091976978084957 0.3 0  2.065128060700849 0.3 0  2.038368218849433 0.3 0  2.01169717777258 0.3 0  1.985114624111908 0.3 0  1.958620267850966 0.3 0  1.93221382054972 0.3 0  1.905894991850698 0.3 0  1.879663489459713 0.3 0  1.853519019126419 0.3 0  1.827461291053897 0.3 0  1.801490031354372 0.3 0  1.775604937580312 0.3 0  1.74980572560258 0.3 0  1.724092118631866 0.3 0  1.698463829173586 0.3 0  1.672920575782554 0.3 0  1.647462076974085 0.3 0  1.622088043536933 0.3 0  1.5967981978949 0.3 0  1.571592267767068 0.3 0  1.546469970305736 0.3 0  1.521431023814044 0.3 0  1.496475156230927 0.3 0  1.471602093687753 0.3 0  1.446811560490646 0.3 0  1.422103279101731 0.3 0  1.397476971708191 0.3 0  1.37293238939876 0.3 0  1.348469231419202 0.3 0  1.324087248732772 0.3 0  1.299786165921677 0.3 0  1.275565710847046 0.3 0  1.251425617644257 0.3 0  1.227365618676339 0.3 0  1.203385446174014 0.3 0  1.179484853067473 0.3 0  1.155663548773374 0.3 0  1.131921292279077 0.3 0  1.108257802159295 0.3 0  1.084672829009693 0.3 0  1.061166115303374 0.3 0  1.037737392995421 0.3 0  1.01438640299116 0.3 0  0.991112899770314 0.3 0  0.9679166155523955 0.3 0  0.944797284182564 0.3 0  0.921754678526042 0.3 0  0.8987885143602501 0.3 0  0.8758985548820624 0.3 0  0.8530845484099929 0.3 0  0.8303462351786988 0.3 0  0.8076833651172373 0.3 0  0.7850956864865304 0.3 0  0.7625829601354557 0.3 0  0.7401449314598274 0.3 0  0.717781337993959 0.3 0  0.6954919649675473 0.3 0  0.6732765357561226 0.3 0  0.6511348120768439 0.3 0  0.6290665642016573 0.3 0  0.6070715355430467 0.3 0  0.5851494825775325 0.3 0  0.5633001690203812 0.3 0  0.5415233562273221 0.3 0  0.5198187909431873 0.3 0  0.4981862401387795 0.3 0  0.4766254686134248 0.3 0  0.4551362360485234 0.3 0  0.4337182975262159 0.3 0  0.4123714223228037 0.3 0  0.3910953802377493 0.3 0  0.3698899313205595 0.3 0  0.3487548463710963 0.3 0  0.3276898864081783 0.3 0  0.3066948129116018 0.3 0  0.2857694003037476 0.3 0  0.2649134227095047 0.3 0  0.2441266417321288 0.3 0  0.2234088223399122 0.3 0  0.2027597568977288 0.3 0  0.1821792020676698 0.3 0  0.1616669305402443 0.3 0  0.1412227158799362 0.3 0  0.12084633013886 0.3 0  0.1005375673448281 0.3 0  0.08029618164595353 0.3 0  0.06012194778526769 0.3 0  0.04001466495039718 0.3 0  0.01997408913631205 0.3 0  0 0.2800000000000553 0  0 0.2600000000001105 0  0 0.2400000000001658 0  0 0.2200000000002211 0  0 0.2000000000002764 0  0 0.1800000000002244 0  0 0.1600000000001691 0  0 0.140000000000115 0  0 0.1200000000000564 0  1.13346801534201 0.01255848438672509 0  1.003577645172735 0.09351054173913405 0  0.9777559943702486 0.1034978156913738 0  0.9524533750752109 0.1040889939962738 0  0.9296242411226409 0.1041520033606139 0  0.9046110503652111 0.104409422380137 0  0.8777709649694228 0.1053360318797398 0  0.8483859145648608 0.1061007868330701 0  0.8162363822948977 0.1052777104363292 0  0.7893110024210437 0.1060761643971561 0  0.7587949382612539 0.1067265405088633 0  0.7280603867732535 0.1069398153264939 0  0.6947001989413015 0.1075609887579097 0  0.6590363283767549 0.1076715322596598 0  0.6210028614493155 0.1072970410408442 0  1.1953125 0.01353164693413185 0  1.258193991486058 0.01269648635163345 0  1.3201967268638 0.01407907077719561 0  1.383538555392096 0.01434101079053473 0  1.445312500000001 0.01303671693628424 0  1.508925448095738 0.01398525724792267 0  0.9939176689634008 0.1034638089837981 0  1.120967497222226 0.2796788492172345 0  1.572835902117391 0.01424132418857359 0  1.637573277451887 0.01212536916586023 0  1.709730776795181 0.01466855431023635 0  1.005631976950563 0.07074019818158772 0  1.784944696816299 0.01454708406461822 0  0.5805605730631225 0.1101465090472147 0  1.855621181165637 0.01550931272897607 0  0.5366111276616774 0.1096761308243709 0  1.935200147913231 0.01760344159641829 0  1.214922267975168 0.2799787705802257 0  1.31178773425331 0.2792
[...]
<PointData  Scalars="pressure"> 
<DataArray  type="Float64"  Name="pressure"  format="ascii">1.5485357459329360e-01  -1.6717066147035448e-01  -2.1462916350185693e-01  -1.6149504475401188e-01  -4.2477670721343917e-02  0.0000000000000000e+00  0.0000000000000000e+00  1.5486085815347028e-01  1.4892745235511509e-01  1.4309681813441444e-01  1.3736010465870574e-01  1.3171578683052512e-01  1.2616235090054032e-01  1.2069831703370054e-01  1.1532225086930803e-01  1.1003268072841266e-01  1.0482821099101021e-01  9.9707452990806467e-02  9.4668999703487133e-02  8.9711501618823172e-02  8.4833644083106105e-02  8.0034062236265954e-02  7.5311456939303634e-02  7.0664615020932214e-02  6.6092136019426082e-02  6.1592827368496868e-02  5.7165445607051682e-02  5.2808687350402755e-02  4.8521386814795939e-02  4.4302416897942863e-02  4.0150419115479057e-02  3.6064314682231306e-02  3.2042810281090746e-02  2.8084803108489077e-02  2.4189254233758960e-02  2.0354882197690154e-02  1.6580503783670073e-02  1.2865069180771011e-02  9.2074428530489767e-03  5.6064248238780591e-03  2.0610181555737388e-03  -1.4300191783329476e-03  -4.8677122946275304e-03  -8.2532503327087097e-03  -1.1587718554632741e-02  -1.4871779675035666e-02  -1.8107297162284621e-02  -2.1294892362206403e-02  -2.4435666241540928e-02  -2.7530945754525946e-02  -3.0581760344713525e-02  -3.3588517582947321e-02  -3.6553359862009499e-02  -3.9476754486318592e-02  -4.2359843535944845e-02  -4.5203784845708334e-02  -4.8009594851553164e-02  -5.0778339715817009e-02  -5.3511229713516448e-02  -5.6209226676827651e-02  -5.8873316014447293e-02  -6.1504470063391069e-02  -6.4104326581489332e-02  -6.6673265097905679e-02  -6.9212600455642176e-02  -7.1723011472681827e-02  -7.4206565098378974e-02  -7.6663759886120134e-02  -7.9094787465847971e-02  -8.1501471047322291e-02  -8.3885463727516624e-02  -8.6246438071938075e-02  -8.8586539085145924e-02  -9.0906566569087341e-02  -9.3206775909287942e-02  -9.5488841700371405e-02  -9.7753711170971508e-02  -1.0000235731831944e-01  -1.0223665373440903e-01  -1.0445664770841089e-01  -1.0666292843277374e-01  -1.0885607659532830e-01  -1.1103988034938667e-01  -1.1321336570719452e-01  -1.1537725785127288e-01  -1.1753361358295614e-01  -1.1968287444774664e-01  -1.2182611211186094e-01  -1.2396453468383713e-01  -1.2610027078907626e-01  -1.2823386307845336e-01  -1.3036564356893221e-01  -1.3249828624112059e-01  -1.3463288112201741e-01  -1.3677080846745063e-01  -1.3891374845995660e-01  -1.4106325817537627e-01  -1.4322140733094829e-01  -1.4539040876117926e-01  -1.4757281208623096e-01  -1.4977162750262724e-01  -1.5198873318371414e-01  -1.5422928664582830e-01  -1.5648965180680391e-01  -1.5888190915909875e-01  -1.6073485899642748e-01  -1.6514542982340055e-01  -1.6529448528492344e-01  -1.6978421322223661e-01  -1.6591043587028245e-01  -2.0279366785373440e-01  -1.8177202723125346e-01  -1.7525569528617940e-01  -1.7050006834940451e-01  -1.6728340230906238e-01  -1.6486783195251545e-01  -1.6305807128775143e-01  -1.6173191215877883e-01  -1.6093550061330311e-01  -1.6074018043590485e-01  -1.6114441242195296e-01  -1.6193410321021975e-01  -1.6230676229928126e-01  -1.6209996307877306e-01  -1.6142834530439301e-01  -1.6038244586156686e-01  -1.5900634922562670e-01  -1.5728574824850119e-01  -1.5520846286770557e-01  -1.5280412044477854e-01  -1.5009071676761457e-01  -1.4707296295355676e-01  -1.4376523768930158e-01  -1.4017932045366979e-01  -1.3632789182206381e-01  -1.3223169985604410e-01  -1.2790410981543024e-01  -1.2335791449703160e-01  -1.1861158491488354e-01  -1.1368396241528846e-01  -1.0858589518694255e-01  -1.0334663578416062e-01  -9.7984014933856584e-02  -9.2513738124233524e-02  -8.6965333230644620e-02  -8.1356688038790217e-02  -7.5715664572995126e-02  -7.0064147497927609e-02  -6.4423117061309071e-02  -5.8822830943045072e-02  -5.3282988945471982e-02  -4.7828149413833725e-02  -3.7156385667555192e-02  -3.1946664180022399e-02  -2.6857513879209802e-02  -2.1921354434635096e-02  -1.7163806007634046e-02  -1.2587303960194911e-02  -8.2173212899629266e-03  -4.0588335211738120e-03  -1.5929204945742549e-04  3.5038448750553761e-03  6.9302791665331910e-03  1.0098841612176624e-02  1.3011127453467938e-02  1.5673252950029231e-02  1.8088326750060758e-02  2.0260551408661395e-02  2.2204122969404910e-02  2.3918780716898319e-02  2.5417893387475136e-02  2.6730473628945636e-02  2.7844720215182951e-02  2.8789494417199815e-02  2.9577617213532935e-02  3.0216606322689590e-02  3.0726996512022039e-02  3.1112907517333491e-02  3.1404800956121796e-02  3.1593067531478954e-02  3.1698340012105475e-02  3.1725299968754332e-02  3.1681729579921984e-02  3.1576975246428482e-02  3.1420328489342474e-02  3.1215931866011862e-02  3.0964585284583245e-02  3.0673633420658129e-02  3.0343883303901257e-02  2.9978203336552999e-02  2.9577832218748611e-02  2.9143344038042356e-02  2.8675261243888368e-02  2.8173667383216455e-02  2.7637471066334626e-02  2.7067116281858830e-02  2.6460271323984253e-02  2.5815729686769675e-02  2.5134738906253073e-02  2.4412569414360017e-02  2.3647512161254273e-02  2.2843778786079117e-02  2.1992279953968224e-02  2.1099800893458198e-02  2.0156367776903737e-02  1.9170445041392425e-02  1.8134596806522366e-02  1.7045172469816280e-02  1.5912316524797777e-02  1.4722375159897791e-02  1.3486242696237091e-02  1.2198084460480712e-02  1.0856831489798392e-02  9.4626418885477882e-03  8.0174745070002388e-03  6.5243627605749135e-03  4.9737656927916832e-03  3.3836737209692901e-03  1.7376731464248888e-03  0.0000000000000000e+00  0.0000000000000000e+00  0.0000000000000000e+00  0.0000000000000000e+00  0.0000000000000000e+00  0.0000000000000000e+00  0.0000000000000000e+00  0.0000000000000000e+00  0.0000000000000000e+00  1.8832159626356280e-03  3.6382384472871689e-03  5.3651435132038598e-03  7.0388704834412645e-03  8.6631271020336052e-03  1.0236541890855808e-02  1.1758118571617890e-02  1.3226118609243248e-02  1.4637677647737105e-02  1.5990562067215216e-02  1.7280796383683305e-02  1.8505901059451355e-02  1.9660875621866761e-02  2.0742769408127113e-02  2.1746877760047294e-02  2.2666698325657750e-02  2.3501989332570538e-02  2.4241778677362824e-02  2.4881588305719606e-02  2.5415489786566801e-02  2.5836824376043340e-02  2.6139232836865669e-02  2.6317229075918970e-02  2.6360295264217792e-02  2.6267313486841498e-02  2.6026454871617477e-02  2.5635994033776907e-02  2.5084709389874019e-02  2.4367641015171526e-02  2.3482265486628875e-02  2.2417868001125652e-02  2.1169024588705100e-02  1.9750725153478636e-02  1.8148085244199152e-02  1.6335676494850356e-02  1.4352632571664426e-02  1.2176368024892317e-02  9.8066062629962852e-03  7.2447322823518227e-03  4.4983452424665650e-03  1.5575366778726952e-03  -1.5634696964920956e-03  -4.8738011240483442e-03  -8.3631036113270794e-03  -1.2042846649045282e-02  -1.5896654941539665e-02  -1.9926542857074719e-02  -2.4122860287771854e-02  -2.8489038459970330e-02  -3.3010791071285690e-02  -3.7685046698335091e-02  -4.2500147102980133e-02  -4.7442233676572951e-02  -5.2502636401772926e-02  -5.7665696022989266e-02  -6.2907548508685476e-02  -6.8168603064618707e-02  -7.3497899609263367e-02  -7.8809027006085441e-02  -8.4043885763959145e-02  -8.9208162514421124e-02  -9.4231131694233805e-02  -9.9096414302647512e-02  -1.0369945508074575e-01  -1.0803594223717253e-01  -1.1199966032185729e-01  -1.1557992301503510e-01  -1.1866916232735435e-01  -1.2127278212478800e-01  -1.2326000152205936e-01  -1.2464652485980723e-01  -1.2535789286494331e-01  -1.2526208488096013e-01  -1.2452926503305740e-01  -1.2301329709174376e-01  -1.2071667792906884e-01  -1.1775217318386276e-01  -1.1413716583922055e-01  -1.0999808840957429e-01  -1.0540284301068545e-01  -1.0034965789797877e-01  -9.4980599823595677e-02  -8.9335773817554892e-02  -8.3512790154504080e-02  -7.7516106111972016e-02  -7.1375274570116762e-02  -6.5145696326207370e-02  -5.8840935989715744e-02  -5.2472915061432972e-02  -4.6066476446722827e-02  -3.9627001606880589e-02  -3.3173827013118766e-02  -2.6709979896419413e-02  -2.0238220879141264e-02  -1.3770555969662306e-02  -7.3082609930349048e-03  -8.5264403843548326e-04  5.5926631689381355e-03  1.2024406893257350e-02  1.8441396029376268e-02  2.4843070767682947e-02  3.1227839052155041e-02  3.7595493311723814e-02  4.3944370176520982e-02  5.0274825598095728e-02  5.6586111346103529e-02  6.2877939916617331e-02  6.9150212205490363e-02  7.5402606065703551e-02  8.1635069158220858e-02  8.7847562153783004e-02  9.4039984045863764e-02  1.0021230598206657e-01  1.0636452603223186e-01  1.1249665416207875e-01  1.1860866683375310e-01  1.2470063506503905e-01  1.3077257804716397e-01  1.3682452406112769e-01  1.4285652712388922e-01  1.4886862150987734e-01  1.5486082993759603e-01  1.5486052692362356e-01  1.5485978742885176e-01  1.5485862698343544e-01  1.5485721762366683e-01  1.5485580681085864e-01  1.5485464394056697e-01  1.5485389951575923e-01  1.5485359758385039e-01  -1.5364657043156493e-01  -1.8610813049277619e-01  -1.6268780846770567e-01  -1.4871420927075624e-01  -1.3795051267670150e-01  -1.2724821173956608e-01  -1.1663690433534310e-01  -1.0573625444228396e-01  -9.4419504225777134e-02  -8.5312412328142642e-02  -7.5279888860025027e-02  -6.5406894413816391e-02  -5.4883242846312040e-02  -4.3790626388768440e-02  -3.2088195091354445e-02  -1.4183379876639826e-01  -1.2550948067084863e-01  -1.0610421022481260e-01  -8.4100296256633511e-02  -6.1886084284826212e-02  -3.9841494200734025e-02  -1.7567902449734277e-01  -1.2336988163601870e-01  -1.9921916683481047e-02  -3.0377719792525752e-03  1.1148019344081680e-02  -1.6675594678324923e-01  2.1177273650523711e-02  -1.9745663099505314e-02  2.6896634295649601e-02  -6.4083971236402115e-03  3.0243369354072444e-02  -1.1323762935383248e-01  -9.6042724278715200e-02  3.1532167778047730e-02  -7.5726262375243283e-02  7.4071494741794388e-03  -4.9572755362102462e-02  3.1404348325800392e-02  2.2270586453397322e-02  -1.5921255149422192e-01  3.0433543412732574e-02  -2.6073010458672153e-02  -1.2444302019218577e-01  3.7675149305619014e-02  2.8855325083764788e-02  -3.1572234138272544e-03  5.5173992957045455e-02  5.7406870128064056e-03  2.6697801141287742e-02  1.3369164954323243e-02  7.2465634604817461e-02  -1.1893600937138510e-01  2.4040859540708365e-02  1.8942122679473709e-02  -1.0758649004516650e-01  2.2961738096084809e-02  2.0607297823308637e-02  -9.2152091190872421e-02  9.2666133905030007e-02  1.0668335191752906e-01  -1.3857539021557876e-02  1.7558925249744572e-02  1.3933911718714482e-02  2.5293191674596194e-02  -7.4650132501714719e-02  2.6239317772798643e-02  -1.5533763299907585e-01  -4.9710404299493700e-02  2.5529020831455810e-02  1.2413521470303183e-01  -2.9980115832856671e-02  1.0131469367491064e-02  2.3017783273068158e-02  -1.0418702722129570e-02  1.5400004106946415e-02  2.0134303334992661e-02  4.7110231476331962e-02  1.6577411484432210e-02  6.6070363494792061e-02  8.4847309847645033e-02  1.2447941452867315e-02  1.1644698670074972e-01  1.5765674085095500e-03  1.4927726666573585e-01  -1.6192854621712899e-01  7.9436053244068047e-03  5.6288471978299982e-03  1.3424954489743970e-01  -1.7325605750736423e-01  -1.6127320719498708e-01  -1.1937239419405832e-01  -6.1900652040638153e-02  1.8763498136657388e-03  2.7703341126287029e-02  1.3458948221153777e-01  -4.0210731947011608e-02  -6.4826965519137580e-02  -8.6007355065733399e-02  -1.0521830128582287e-01  8.2728334303796225e-02  2.6051062561705852e-02  6.3554662921782037e-02  9.7088703944832849e-02  2.4476132307610667e-02  2.2409348145101760e-02  4.5851870848612704e-02  2.5368084648866772e-02  2.7859934026727852e-02  3.0313026744605100e-02  2.9714984680358179e-02  3.1008619824654204e-02  3.1594657797600074e-02  3.1128290536002325e-02  -2.9758932347447295e-02  1.4720989011864527e-02  2.8877100897536707e-02  2.4365560244670969e-02  3.3218894713560164e-04  1.6761554704955120e-02  4.8460672048089475e-03  -1.0634413532910713e-02  1.3175984824847372e-03  -1.3594118768484919e-02  -2.5536170287580293e-02  1.4961704819944291e-01  -3.7705721309040409e-02  -4.9406051672275970e-02  -6.0205274236905200e-02  -7.0582270266324493e-02  -8.0374955656451946e-02  -8.9673760903330041e-02  -1.4820236840559781e-01  -1.0116602935508284e-01  -1.1218268250879210e-01  -1.2297223126676567e-01  -1.3421965864420946e-01  -1.3373229738913472e-01  -9.5579049995460699e-02  -1.1569726853935142e-01  -7.3944926619656001e-02  -5.0860265828205395e-02  -1.4442975519244780e-01  -1.6626521648297551e-01  1.6525845581706014e-03  1.4912048362744143e-01  4.4305614325955145e-03  -1.6170549186056712e-01  1.4986895687365129e-01  1.3440939035097531e-03  1.4576484248426189e-01  -1.6167199939082993e-01  -1.6133400928980093e-01  -1.6087340818744897e-01  -1.6137343290807696e-01  -1.6089512015857216e-01  -1.6172116930212094e-01  -1.6106191509788112e-01  -1.6217052621883077e-01  -1.6134107421050889e-01  -1.6248660138333898e-01  -1.6153855671774775e-01  -1.6240798379246790e-01  -1.6126477277813772e-01  -1.6177236541041418e-01  -1.6049149413452024e-01  -1.6068777819014579e-01  -1.5923173967784945e-01  -1.5922206224973218e-01  -1.5760046273693445e-01  -1.5723306525304717e-01  -1.5530566298934645e-01  -1.5891703293362722e-01  -1.5577157259104840e-01  -1.5309685657144603e-01  -1.5629951609519191e-01  -1.5827005418918672e-01  -1.5333953461764832e-01  -1.5052340689194119e-01  -1.5068674109564986e-01  -1.4751572207817551e-01  -1.4755983964287800e-01  -1.4408140750774789e-01  -1.4403807984460315e-01  -1.4048884687038063e-01  -1.4011732609833358e-01  -1.3586378698333837e-01  -1.3558903576344036e-01  -1.3150748387425687e-01  -1.3082375960726830e-01  -1.2658836705630092e-01  -1.2567054829523563e-01  -1.2135374004024557e-01  -1.2021546449713801e-01  -1.1586296620366847e-01  -1.1446695061651295e-01  -1.1014510406451294e-01  -1.0845832116116888e-01  -1.0421701580016034e-01  -1.0225353376040849e-01  -9.8154676247895228e-02  -9.5867719125217632e-02  -9.1994973086565499e-02  -8.9263782474430550e-02  -1.5462624026930338e-01  -1.5646085685398958e-01  -8.5756844437842011e-02  -8.2618145267537441e-02  -7.9512784985461604e-02  -7.6390298889813413e-02  -7.3360595159089229e-02  -6.9903602669969797e-02  -6.7301085935248667e-02  -6.3535445527271223e-02  -1.4950352869371467e-01  -6.1446645138455699e-02  -5.7276182860019446e-02  -5.5497386517443500e-02  -5.1140363137371123e-02  -4.9955694220187495e-02  -4.5276013257891337e-02  -1.5204074154244313e-01  -1.5407336767946717e-01  -1.6290512789217043e-01  -4.4543059518045262e-02  -3.9596333954339140e-02  -3.9395136593626416e-02  -3.4186528950899950e-02  -3.4493908461048113e-02  -2.9078259512230632e-02  -1.5965484987535750e-01  -2.9856465483906448e-02  -2.4239086137940406e-02  -1.3989069605382226e-01  -2.5469788323354253e-02  -1.9716654464967891e-02  -2.1366893547493125e-02  -1.5504070810019957e-02  -1.7468642990772346e-02  -1.1593543220125966e-02  -1.5986085472160033e-01  -1.2657529268414400e-01  -1.3894904849824884e-02  -7.9866907135231393e-03  -1.4856617267498526e-01  -1.4991292756506563e-01  -1.4689485187302734e-01  -1.1088513871978813e-01  -1.0508811362777792e-02  -4.5275583219446412e-03  -7.4574842958986453e-03  -1.4139172822042858e-03  -4.5578616462222370e-03  1.2906514445134496e-03  -4.0440055126150315e-02  -1.9104121349455478e-03  -2.3712469551947959e-02  -5.9479492901941565e-02  -1.8695383914601386e-03  3.7738698388007307e-03  6.9181233666289121e-03  9.2535048954571989e-03  6.0981624104741502e-03  1.1364935564612766e-02  8.2899774920313918e-03  1.3339279457057571e-02  1.0272023730650915e-02  1.5066496809089487e-02  1.2088865926863606e-02  1.6657988975257342e-02  1.3797865908551886e-02  1.8060681207902093e-02  1.5283116622198355e-02  1.9343047596816425e-02  1.6763639854215754e-02  2.0613565472760061e-02  1.8087007817456240e-02  2.1662591345337656e-02  1.9333008481188633e-02  2.2576885686480707e-02  2.0333872621320487e-02  2.3409536643794367e-02  -7.9220601417821446e-02  -9.4075468308936080e-02  2.1354457027732296e-02  2.4115328817880581e-02  2.2322355425024264e-02  2.4785581448482637e-02  -1.4679532142837809e-01  -1.1230920025296842e-01  2.3186093497213432e-02  2.5343206454602057e-02  -1.2926447319495105e-01  -7.6948719969268983e-02  -1.4419302743096027e-01  -1.4514133394372067e-01  -1.5166478484079340e-01  -1.4577659881732366e-01  -1.5131697943276504e-01  -1.4572133217378905e-01  -1.5165976612707815e-01  -1.4514230381517360e-01  -1.4938313966762026e-01  -1.4353599205466533e-01  -1.4790762745882616e-01  -1.4149309504253543e-01  -1.4434453096427075e-01  -1.3874069007532633e-01  -1.4087858936473241e-01  -1.3574646695048179e-01  -1.3721986152776294e-01  -1.3243426177835899e-01  -1.3345306664312834e-01  -1.2899887340068930e-01  -1.2961422437396408e-01  -1.2543894430239791e-01  -1.2577044429388576e-01  -1.2183542253266193e-01  -1.2192456704777101e-01  -1.1824392169073357e-01  -1.1776190453249681e-01  -1.1435766353872663e-01  -1.1448153208083579e-01  -1.1087617146139407e-01  -1.1066635795534131e-01  -1.0726788352556814e-01  -1.0706961541611540e-01  -1.0370126589956623e-01  -1.0323359368061279e-01  -1.0006935852482313e-01  -1.3340608901036330e-01  -1.1052857486813859e-01  -1.2439516531598090e-01  -9.9530740086751668e-02  -9.6358282320636396e-02  -9.6656220990551101e-02  -9.3122478033601283e-02  -9.2606296100630675e-02  -8.9507399770335810e-02  -8.8808989805492469e-02  -8.5834993318081310e-02  -8.5026917697162654e-02  -8.2103689658911502e-02  -8.9288073941221652e-02  -1.5647890007249221e-01  -1.4979508777361938e-01  -8.1305993473374111e-02  -7.8316257689118485e-02  -7.9071112985854342e-02  -7.5291387790221279e-02  -7.4505119318816426e-02  -7.1531156042483432e-02  -7.0637180085919668e-02  -6.7744861144113114e-02  -1.4202251221503703e-01  -7.2055178428077127e-02  -6.6792667332880376e-02  -6.3972858608810246e-02  -1.3371946668070067e-01  -6.3062502259610395e-02  -6.0144694955044001e-02  -6.1327621457086604e-02  -5.7179562883273895e-02  -5.6207674171216970e-02  -5.3131816371209173e-02  -5.4061893867047614e-02  -5.0017097306484980e-02  -4.9101714809863473e-02  -4.5980710343302825e-02  -4.5056073338155117e-02  -4.1850854122069091e-02  -4.2800686701926785e-02  -3.8674663825651087e-02  -3.7694809974720744e-02  -3.4543942039695859e-02  -3.3602527623329666e-02  -3.0430840345969608e-02  -1.4060388861415432e-01  -1.1038565416824163e-01  -1.2547040805027987e-01  -2.9583138636951473e-02  -2.6349826652811759e-02  -2.7209815519465268e-02  -2.2975689246081333e-02  -2.2120746250121445e-02  -1.8747488312178796e-02  -2.3834549533613449e-02  2.3874942388854750e-02  2.5810098283131189e-02  2.4503832279819813e-02  2.6209170234652465e-02  2.5067608154463326e-02  2.6535049799116906e-02  -9.1937348651647849e-02  -4.9453314411903176e-02  -1.6273974619597886e-01  -1.7860483847726427e-02  -1.4554572152939748e-02  -1.0257425107818435e-01  2.0986689169901741e-02  2.5440518951358966e-02  1.1874390002724002e-02  2.5540590183360488e-02  2.6779660462606759e-02  2.7860618108415610e-02  2.7888737178330986e-02  2.6949086887359777e-02  2.7863629139710671e-02  2.7051700188100408e-02  2.7778958082286340e-02  2.7071703526697324e-02  2.7625868548079736e-02  2.7020058134169158e-02  2.7414882585682126e-02  2.6884746552291235e-02  2.7132013343417430e-02  2.6673242654569579e-02  2.6789741848052592e-02  2.6390041487986318e-02  2.6386081822702918e-02  2.6038342808723681e-02  2.5923890970302135e-02  2.5608241447503049e-02  2.5387631312522065e-02  2.5096469859501827e-02  2.4800571725292726e-02  2.4507768487401486e-02  2.4126875011111857e-02  2.3860355410667364e-02  2.3413669906731664e-02  2.3121314989878183e-02  2.2615645259008676e-02  2.2322359119290307e-02  2.1769888282914058e-02  2.7398921822264999e-02  -3.9691877621097361e-02  -7.3646714223977047e-02  -1.3545143686977588e-02  -1.0252227972195100e-02  -1.1252509008760367e-02  -6.7989679334211446e-03  -7.8436131893800005e-03  -3.2868167706042980e-03  -2.3621195768744377e-03  1.1696217416443829e-03  2.2142755941591324e-03  5.7183377427119306e-03  4.7710472104393799e-03  9.3078062819822328e-03  1.0113161284533366e-02  1.3809417414097644e-02  1.46009382493