<?xml version="1.0"?>
<VTKFile type="UnstructuredGrid"  version="0.1"  >
<UnstructuredGrid>
<Piece  NumberOfPoints="2886" NumberOfCells="5412">
<Points>
<DataArray  type="Float64"  NumberOfComponents="3"  format="ascii">0 0.1 0  0.98 0.1 0  1 0.1 0  1 0 0  1.5 0 0  3 0 0  3 0.3 0  0 0.3 0  0.01975375321854102 0.1 0  0.03918897458218897 0.1 0  0.05831079002627837 0.1 0  0.07712425666319796 0.1 0  0.0956343475259058 0.1 0  0.1138459546796227 0.1 0  0.1317638870668193 0.1 0  0.1493928840275937 0.1 0  0.1667376092280033 0.1 0  0.1838026357802664 0.1 0  0.2005924801287244 0.1 0  0.2171115811543574 0.1 0  0.2333643037107681 0.1 0  0.2493549444060462 0.1 0  0.2650877293306821 0.1 0  0.2805668058011438 0.1 0  0.2957962848620976 0.1 0  0.3107801766802674 0.1 0  0.3255224447361181 0.1 0  0.3400269848175519 0.1 0  0.3542976327080778 0.1 0  0.3683381609158136 0.1 0  0.3821522744564845 0.1 0  0.3957436316838916 0.1 0  0.4091158196437086 0.1 0  0.4222723742184605 0.1 0  0.4352167733293057 0.1 0  0.4479524348643424 0.1 0  0.4604827295467524 0.1 0  0.4728109659990664 0.1 0  0.4849404035409129 0.1 0  0.4968742471455402 0.1 0  0.508615651843175 0.1 0  0.520167721130924 0.1 0  0.5315335063628542 0.1 0  0.5427160117228604 0.1 0  0.5537181940261912 0.1 0  0.564542961924507 0.1 0  0.575193173270606 0.1 0  0.5856716438765114 0.1 0  0.5959811458006617 0.1 0  0.6061243988680743 0.1 0  0.6161040893285659 0.1 0  0.6259228503970299 0.1 0  0.6355832809287655 0.1 0  0.6450879281079505 0.1 0  0.6544393102991295 0.1 0  0.663639896558931 0.1 0  0.6726921201956305 0.1 0  0.6815983691630338 0.1 0  0.6903610031396646 0.1 0  0.6989823343332418 0.1 0  0.7074646404270378 0.1 0  0.7158101645005117 0.1 0  0.7240211149852543 0.1 0  0.7320996585612525 0.1 0  0.7400479319727645 0.1 0  0.7478680336617921 0.1 0  0.755562036504958 0.1 0  0.7631319665092091 0.1 0  0.7705798279317605 0.1 0  0.777907588066146 0.1 0  0.7851171851013118 0.1 0  0.7922105226004981 0.1 0  0.7991894774550319 0.1 0  0.8060558928136696 0.1 0  0.812811583201334 0.1 0  0.8194583352091183 0.1 0  0.8259979035038147 0.1 0  0.8324320194413813 0.1 0  0.8387623808293405 0.1 0  0.8449906627004957 0.1 0  0.8511185094880469 0.1 0  0.8571475426008311 0.1 0  0.8630793533568246 0.1 0  0.8689155114558531 0.1 0  0.8746575581239063 0.1 0  0.8803070109173519 0.1 0  0.885865363938836 0.1 0  0.8913340851680313 0.1 0  0.8967146206523592 0.1 0  0.9020083930695622 0.1 0  0.9072167995950768 0.1 0  0.9123412183131177 0.1 0  0.9173830029719022 0.1 0  0.9223434865647732 0.1 0  0.9272239785872722 0.1 0  0.9320257720706087 0.1 0  0.9367501330378739 0.1 0  0.9413983102716995 0.1 0  0.9459715351562933 0.1 0  0.9504710127113115 0.1 0  0.9548979346500661 0.1 0  0.9592534708344373 0.1 0  0.9635387708980176 0.1 0  0.9677549682252325 0.1 0  0.971903177251235 0.1 0  0.9759844952956497 0.1 0  0.9840000000000086 0.1 0  0.987999999999974 0.1 0  0.9919999999999393 0.1 0  0.9959999999999913 0.1 0  1 0.09591793123533533 0  1 0.09133596463859224 0  1 0.08619288104391448 0  1 0.08041996484521211 0  1 0.07394008421771697 0  1 0.06666666567302955 0  1 0.05850252932209174 0  1 0.04933859630113544 0  1 0.03905242821848202 0  1 0.02750659386753798 0  1 0.01454683679239736 0  1.015625 0 0  1.03125 0 0  1.046875 0 0  1.0625 0 0  1.078125 0 0  1.09375 0 0  1.109375 0 0  1.125 0 0  1.140625 0 0  1.15625 0 0  1.171875 0 0  1.1875 0 0  1.203125 0 0  1.21875 0 0  1.234375 0 0  1.25 0 0  1.265625 0 0  1.28125 0 0  1.296875 0 0  1.3125 0 0  1.328125 0 0  1.34375 0 0  1.359375 0 0  1.375 0 0  1.390625 0 0  1.40625 0 0  1.421875 0 0  1.4375 0 0  1.453125 0 0  1.46875 0 0  1.484375 0 0  1.515920751924515 0 0  1.531989369316721 0 0  1.54820720925872 0 0  1.564575665560501 0 0  1.581096138674279 0 0  1.597770029901263 0 0  1.614598783332311 0 0  1.631583831055205 0 0  1.64872661129721 0 0  1.666028606716533 0 0  1.683491276608443 0 0  1.701116134125304 0 0  1.718904673324128 0 0  1.736858414799339 0 0  1.754978895814663 0 0  1.773267661782904 0 0  1.791726281103402 0 0  1.810356325314689 0 0  1.8291593848892 0 0  1.848137076690385 0 0  1.867291007717254 0 0  1.886622833871288 0 0  1.90613418642363 0 0  1.925826753299799 0 0  1.945702199101513 0 0  1.96576223584749 0 0  1.986008569283268 0 0  2.006442931928877 0 0  2.02706707547783 0 0  2.047882750887917 0 0  2.06889175187935 0 0  2.090095860038271 0 0  2.111496891648636 0 0  2.133096679109554 0 0  2.154897066851056 0 0  2.176899916687499 0 0  2.199107102752146 0 0  2.22152053937028 0 0  2.244142122958061 0 0  2.266973806444078 0 0  2.290017523268154 0 0  2.313275249499252 0 0  2.336748971745516 0 0  2.360440702338606 0 0  2.384352453384031 0 0  2.408486280477412 0 0  2.432844240041185 0 0  2.457428414757088 0 0  2.482240901796653 0 0  2.507283830121838 0 0  2.532559332080812 0 0  2.558069568787417 0 0  2.583816724966441 0 0  2.60980299606584 0 0  2.636030600971886 0 0  2.662501790984011 0 0  2.689218818279327 0 0  2.716183964547616 0 0  2.743399548861297 0 0  2.77086788244719 0 0  2.798591312896326 0 0  2.826572223178268 0 0  2.854812990138617 0 0  2.883316031690714 0 0  2.912083780657189 0 0  2.941118704633482 0 0  2.970423276998917 0 0  3 0.02999999999994495 0  3 0.05999999999987042 0  3 0.089999999999783 0  3 0.119999999999701 0  3 0.149999999999619 0  3 0.179999999999692 0  3 0.2099999999997737 0  3 0.2399999999998511 0  3 0.2699999999999185 0  2.970138294777171 0.3 0  2.940375666438236 0.3 0  2.910711782853056 0.3 0  2.881146331305122 0.3 0  2.851678975030285 0.3 0  2.822309388626621 0.3 0  2.793037250095074 0.3 0  2.76386223529133 0.3 0  2.734784017903872 0.3 0  2.705802289276642 0.3 0  2.676916713794697 0.3 0  2.648126987654635 0.3 0  2.619432780406184 0.3 0  2.590833779385199 0.3 0  2.562329669847737 0.3 0  2.533920134950189 0.3 0  2.505604855727852 0.3 0  2.477383539822502 0.3 0  2.449255847639465 0.3 0  2.421221492569094 0.3 0  2.393280152486815 0.3 0  2.36543151914496 0.3 0  2.337675285481809 0.3 0  2.310011142385583 0.3 0  2.282438797441587 0.3 0  2.254957931061538 0.3 0  2.227568248063605 0.3 0  2.200269436651085 0.3 0  2.173061204949961 0.3 0  2.145943251515011 0.3 0  2.118915272469994 0.3 0  2.091976978084957 0.3 0  2.065128060700849 0.3 0  2.038368218849433 0.3 0  2.01169717777258 0.3 0  1.985114624111908 0.3 0  1.958620267850966 0.3 0  1.93221382054972 0.3 0  1.905894991850698 0.3 0  1.879663489459713 0.3 0  1.853519019126419 0.3 0  1.827461291053897 0.3 0  1.801490031354372 0.3 0  1.775604937580312 0.3 0  1.74980572560258 0.3 0  1.724092118631866 0.3 0  1.698463829173586 0.3 0  1.672920575782554 0.3 0  1.647462076974085 0.3 0  1.622088043536933 0.3 0  1.5967981978949 0.3 0  1.571592267767068 0.3 0  1.546469970305736 0.3 0  1.521431023814044 0.3 0  1.496475156230927 0.3 0  1.471602093687753 0.3 0  1.446811560490646 0.3 0  1.422103279101731 0.3 0  1.397476971708191 0.3 0  1.37293238939876 0.3 0  1.348469231419202 0.3 0  1.324087248732772 0.3 0  1.299786165921677 0.3 0  1.275565710847046 0.3 0  1.251425617644257 0.3 0  1.227365618676339 0.3 0  1.203385446174014 0.3 0  1.179484853067473 0.3 0  1.155663548773374 0.3 0  1.131921292279077 0.3 0  1.108257802159295 0.3 0  1.084672829009693 0.3 0  1.061166115303374 0.3 0  1.037737392995421 0.3 0  1.01438640299116 0.3 0  0.991112899770314 0.3 0  0.9679166155523955 0.3 0  0.944797284182564 0.3 0  0.921754678526042 0.3 0  0.8987885143602501 0.3 0  0.8758985548820624 0.3 0  0.8530845484099929 0.3 0  0.8303462351786988 0.3 0  0.8076833651172373 0.3 0  0.7850956864865304 0.3 0  0.7625829601354557 0.3 0  0.7401449314598274 0.3 0  0.717781337993959 0.3 0  0.6954919649675473 0.3 0  0.6732765357561226 0.3 0  0.6511348120768439 0.3 0  0.6290665642016573 0.3 0  0.6070715355430467 0.3 0  0.5851494825775325 0.3 0  0.5633001690203812 0.3 0  0.5415233562273221 0.3 0  0.5198187909431873 0.3 0  0.4981862401387795 0.3 0  0.4766254686134248 0.3 0  0.4551362360485234 0.3 0  0.4337182975262159 0.3 0  0.4123714223228037 0.3 0  0.3910953802377493 0.3 0  0.3698899313205595 0.3 0  0.3487548463710963 0.3 0  0.3276898864081783 0.3 0  0.3066948129116018 0.3 0  0.2857694003037476 0.3 0  0.2649134227095047 0.3 0  0.2441266417321288 0.3 0  0.2234088223399122 0.3 0  0.2027597568977288 0.3 0  0.1821792020676698 0.3 0  0.1616669305402443 0.3 0  0.1412227158799362 0.3 0  0.12084633013886 0.3 0  0.1005375673448281 0.3 0  0.08029618164595353 0.3 0  0.06012194778526769 0.3 0  0.04001466495039718 0.3 0  0.01997408913631205 0.3 0  0 0.2800000000000553 0  0 0.2600000000001105 0  0 0.2400000000001658 0  0 0.2200000000002211 0  0 0.2000000000002764 0  0 0.1800000000002244 0  0 0.1600000000001691 0  0 0.140000000000115 0  0 0.1200000000000564 0  1.13346801534201 0.01255848438672509 0  1.003577645172735 0.09351054173913405 0  0.9777559943702486 0.1034978156913738 0  0.9524533750752109 0.1040889939962738 0  0.9296242411226409 0.1041520033606139 0  0.9046110503652111 0.104409422380137 0  0.8777709649694228 0.1053360318797398 0  0.8483859145648608 0.1061007868330701 0  0.8162363822948977 0.1052777104363292 0  0.7893110024210437 0.1060761643971561 0  0.7587949382612539 0.1067265405088633 0  0.7280603867732535 0.1069398153264939 0  0.6947001989413015 0.1075609887579097 0  0.6590363283767549 0.1076715322596598 0  0.6210028614493155 0.1072970410408442 0  1.1953125 0.01353164693413185 0  1.258193991486058 0.01269648635163345 0  1.3201967268638 0.01407907077719561 0  1.383538555392096 0.01434101079053473 0  1.445312500000001 0.01303671693628424 0  1.508925448095738 0.01398525724792267 0  0.9939176689634008 0.1034638089837981 0  1.120967497222226 0.2796788492172345 0  1.572835902117391 0.01424132418857359 0  1.637573277451887 0.01212536916586023 0  1.709730776795181 0.01466855431023635 0  1.005631976950563 0.07074019818158772 0  1.784944696816299 0.01454708406461822 0  0.5805605730631225 0.1101465090472147 0  1.855621181165637 0.01550931272897607 0  0.5366111276616774 0.1096761308243709 0  1.935200147913231 0.01760344159641829 0  1.214922267975168 0.2799787705802257 0  1.31178773425331 0.2792
[...]
<PointData  Scalars="pressure"> 
<DataArray  type="Float64"  Name="pressure"  format="ascii">1.6089674686705482e-01  -1.6525876354508584e-01  -2.1937649751467564e-01  -1.6326632439364822e-01  -4.2989596064760716e-02  0.0000000000000000e+00  0.0000000000000000e+00  1.6090330986498225e-01  1.5497062432782416e-01  1.4913999722981303e-01  1.4340330137431012e-01  1.3775901271428639e-01  1.3220561973013120e-01  1.2674164425635473e-01  1.2136565093847416e-01  1.1607617370013398e-01  1.1087181664934881e-01  1.0575119280930069e-01  1.0071290165486510e-01  9.5755595328345294e-02  9.0877959879777273e-02  8.6078639383025540e-02  8.1356338684236321e-02  7.6709840365737067e-02  7.2137763912489508e-02  6.7638915544679545e-02  6.3212058372228069e-02  5.8855904822867310e-02  5.4569292160882334e-02  5.0351090605793167e-02  4.6199973096644503e-02  4.2114857778108548e-02  3.8094477384434416e-02  3.4137737423236038e-02  3.0243593678523178e-02  2.6410799683244821e-02  2.2638191930050847e-02  1.8924728151713061e-02  1.5269292444192815e-02  1.1670713915114025e-02  8.1280043295998677e-03  4.6399580865095153e-03  1.2055636540752005e-03  -2.1763295941768400e-03  -5.5067778159492466e-03  -8.7864811425825366e-03  -1.2017169284483842e-02  -1.5199482166160046e-02  -1.8334507420382288e-02  -2.1423485709865919e-02  -2.4467418625655827e-02  -2.7466783219137335e-02  -3.0423522600005266e-02  -3.3338149230025767e-02  -3.6211756113179672e-02  -3.9045446995831949e-02  -4.1840193554257832e-02  -4.4597018900382049e-02  -4.7317068561498019e-02  -5.0001259938547038e-02  -5.2650539440422833e-02  -5.5265840284050856e-02  -5.7848666390581775e-02  -6.0399428141460883e-02  -6.2919346988295113e-02  -6.5409081595092636e-02  -6.7870538193645594e-02  -7.0304166156664724e-02  -7.2710240219381120e-02  -7.5090408006639159e-02  -7.7446164697034234e-02  -7.9777285358730743e-02  -8.2085710931378855e-02  -8.4372155245812000e-02  -8.6636924539327392e-02  -8.8881514374576198e-02  -9.1106791522050243e-02  -9.3313642530405194e-02  -9.5503700370420427e-02  -9.7677081815445321e-02  -9.9834263815800420e-02  -1.0197586513341302e-01  -1.0410506065867231e-01  -1.0622105593101731e-01  -1.0832448626448438e-01  -1.1041707744929868e-01  -1.1249919222407474e-01  -1.1457169932313023e-01  -1.1663558351494471e-01  -1.1869252467884746e-01  -1.2074292141302086e-01  -1.2278691989760267e-01  -1.2482657184068707e-01  -1.2686258363471214e-01  -1.2889584420239725e-01  -1.3092739871822226e-01  -1.3295812966154719e-01  -1.3498922487948853e-01  -1.3702183388780209e-01  -1.3905716928230449e-01  -1.4109616738136488e-01  -1.4313991776871082e-01  -1.4518570385976801e-01  -1.4721291620667765e-01  -1.4956842902859124e-01  -1.5007028437465311e-01  -1.5288877476394694e-01  -1.4719354337458712e-01  -1.5266127540456903e-01  -1.5153230297908998e-01  -2.0563808169360512e-01  -1.8375930475040245e-01  -1.7711535057917244e-01  -1.7230091252712890e-01  -1.6905980619180905e-01  -1.6663138619199702e-01  -1.6481546996309268e-01  -1.6348837177878639e-01  -1.6269462636981055e-01  -1.6250477585061801e-01  -1.6291445166458451e-01  -1.6370686896839162e-01  -1.6408485267965459e-01  -1.6388443519031887e-01  -1.6322094795665024e-01  -1.6218536043640724e-01  -1.6082169326606338e-01  -1.5911530671384913e-01  -1.5705367453809718e-01  -1.5466571527996945e-01  -1.5196856754714355e-01  -1.4896604491279414e-01  -1.4567151112758964e-01  -1.4209558383360521e-01  -1.3824985236148080e-01  -1.3415402866614229e-01  -1.2982034057027270e-01  -1.2526047467538487e-01  -1.2049199976704487e-01  -1.1553297059304932e-01  -1.1039283261792317e-01  -1.0510134187280316e-01  -9.9675264991254772e-02  -9.4130024860751046e-02  -8.8495564690816347e-02  -8.2789918154195688e-02  -7.7041349705902706e-02  -7.1272281417300423e-02  -6.5504773923073079e-02  -5.9770402810086290e-02  -5.4089895114368111e-02  -4.8489339200125950e-02  -3.7514229230929633e-02  -3.2149357721298392e-02  -2.6904510648933778e-02  -2.1814909149344520e-02  -1.6908584240907288e-02  -1.2187438637125653e-02  -7.6808915366295442e-03  -3.3946686297224886e-03  6.2152274657629179e-04  4.3908698929606121e-03  7.9112413937776384e-03  1.1160599211253180e-02  1.4140515775913505e-02  1.6856973583320493e-02  1.9313228624738638e-02  2.1513913718474269e-02  2.3473957519523712e-02  2.5193342017014144e-02  2.6686938355633443e-02  2.7984876232477300e-02  2.9075857450416697e-02  2.9990504837417820e-02  3.0742595797370952e-02  3.1340659664647726e-02  3.1806524052355407e-02  3.2145371947638876e-02  3.2388474986437800e-02  3.2527053245643735e-02  3.2582613660042399e-02  3.2560372311703278e-02  3.2468628297840314e-02  3.2317266468671828e-02  3.2115872127687142e-02  3.1868811647959877e-02  3.1577103420368360e-02  3.1248140767861678e-02  3.0882802301147941e-02  3.0483903132609055e-02  3.0052635879550076e-02  2.9589464883330068e-02  2.9094783974304216e-02  2.8568525538584157e-02  2.8009440849626119e-02  2.7417791139908585e-02  2.6791050270616061e-02  2.6127843237138019e-02  2.5429247351031248e-02  2.4690430356510158e-02  2.3909217845350730e-02  2.3090235705961262e-02  2.2223543478914188e-02  2.1316585236551933e-02  2.0358379125102594e-02  1.9358210921567136e-02  1.8308031331596603e-02  1.7203904872384802e-02  1.6056774415167490e-02  1.4851933001108571e-02  1.3601244942299752e-02  1.2298426953193557e-02  1.0942630978078344e-02  9.5337356458784547e-03  8.0742354770715705e-03  6.5673970485651085e-03  5.0042019589013834e-03  3.4022324288460176e-03  1.7454239224443285e-03  0.0000000000000000e+00  0.0000000000000000e+00  0.0000000000000000e+00  0.0000000000000000e+00  0.0000000000000000e+00  0.0000000000000000e+00  0.0000000000000000e+00  0.0000000000000000e+00  0.0000000000000000e+00  1.9274233388062538e-03  3.7229190230077033e-03  5.4875201398203585e-03  7.1970906284167507e-03  8.8554196704734457e-03  1.0461355943559021e-02  1.2013995513401331e-02  1.3511676289170467e-02  1.4951633179351866e-02  1.6331615521723630e-02  1.7647626730269320e-02  1.8897108383815087e-02  2.0074965563318881e-02  2.1178131293297663e-02  2.2201724504251626e-02  2.3139049314265473e-02  2.3989672046459867e-02  2.4742442823805347e-02  2.5392685374459469e-02  2.5934246052497733e-02  2.6360293519950700e-02  2.6664296703502288e-02  2.6840598451722455e-02  2.6878696039435487e-02  2.6777014297247218e-02  2.6524193381853450e-02  2.6118193252314879e-02  2.5548012167729738e-02  2.4808807719574916e-02  2.3898232886611654e-02  2.2805957940175023e-02  2.1526822143271354e-02  2.0075875752445453e-02  1.8439251011629493e-02  1.6591344551667220e-02  1.4572551906708614e-02  1.2359593574078684e-02  9.9536049247196563e-03  7.3561095221764015e-03  4.5746786928746452e-03  1.6003542868246654e-03  -1.5530104247771395e-03  -4.8941738823989099e-03  -8.4125913027688678e-03  -1.2119670178242109e-02  -1.5999829646597522e-02  -2.0054469462615142e-02  -2.4274734530321689e-02  -2.8663698063733947e-02  -3.3207562491533185e-02  -3.7903351979328079e-02  -4.2739312498679655e-02  -4.7701506179742732e-02  -5.2780816314397391e-02  -5.7961139988854334e-02  -6.3217741986835052e-02  -6.8489060476667113e-02  -7.3823187429633369e-02  -7.9132449119460310e-02  -8.4354405454083514e-02  -8.9493298463627885e-02  -9.4475388555268672e-02  -9.9279536256478576e-02  -1.0379777978664546e-01  -1.0802212915997071e-01  -1.1184051139198159e-01  -1.1524048557641374e-01  -1.1810869739929006e-01  -1.2044979220916043e-01  -1.2213034091672448e-01  -1.2316712607470802e-01  -1.2349110459386051e-01  -1.2297957109008197e-01  -1.2180864155644831e-01  -1.1985566306134152e-01  -1.1713720772718615e-01  -1.1377857079304422e-01  -1.0981133295456641e-01  -1.0536191985764094e-01  -1.0050052012911641e-01  -9.5230854965550255e-02  -8.9682596598584657e-02  -8.3893673801116925e-02  -7.7950369678843570e-02  -7.1857385223933978e-02  -6.5640888727580810e-02  -5.9349333844922428e-02  -5.2994845911271321e-02  -4.6587745706162170e-02  -4.0149764113107188e-02  -3.3685628138893219e-02  -2.7212178710774665e-02  -2.0732106365554167e-02  -1.4247793350389146e-02  -7.7697246079610907e-03  -1.2990338439921232e-03  5.1631597358820997e-03  1.1613676568701268e-02  1.8049685242236675e-02  2.4470130573542741e-02  3.0874541413524210e-02  3.7261523237134879e-02  4.3630907879885175e-02  4.9981232381578415e-02  5.6312824772450490e-02  6.2625029938648796e-02  6.8917605979713095e-02  7.5190471556388180e-02  8.1443351475520009e-02  8.7676206348282701e-02  9.3889010620109709e-02  1.0008168200439672e-01  1.0625420307031461e-01  1.1240658017761657e-01  1.1853882977591389e-01  1.2465093860950770e-01  1.3074297666630469e-01  1.3681496947507776e-01  1.4286694949381834e-01  1.4889897157279589e-01  1.5491107415346728e-01  1.6090328450213648e-01  1.6090301168924354e-01  1.6090234547508608e-01  1.6090129972116227e-01  1.6090002949366020e-01  1.6089875795561756e-01  1.6089771001613973e-01  1.6089703936255476e-01  1.6089676752913235e-01  -1.5549707988488123e-01  -1.8843664256705756e-01  -1.5321844362925219e-01  -1.4009106288129067e-01  -1.3000054348831039e-01  -1.1978658748667495e-01  -1.0953929619313560e-01  -9.8922216985896649e-02  -8.7825814168846619e-02  -7.8851747548027123e-02  -6.8930996557704863e-02  -5.9140063494078382e-02  -4.8680533095130651e-02  -3.7636318969033432e-02  -2.5969473471453220e-02  -1.4373902416159381e-01  -1.2741241823626234e-01  -1.0788012747019129e-01  -8.5575065958138796e-02  -6.2902852288933914e-02  -4.0274137788364597e-02  -1.6511458727347852e-01  -1.2208786996549398e-01  -1.9751142268916177e-02  -2.3434614578757970e-03  1.2231015637653084e-02  -1.6855000320460126e-01  2.2431981118962867e-02  -1.3652227470196423e-02  2.8136076530456203e-02  -3.3310097224787294e-04  3.1344888224511591e-02  -1.1297414779985392e-01  -9.6235497070561796e-02  3.2434317565478724e-02  -7.6032511643295816e-02  1.3470439753197954e-02  -4.9826810223174652e-02  3.2128536940685758e-02  2.8325867318198059e-02  -1.6101981521714107e-01  3.0995719900925128e-02  -2.6228948981957479e-02  -1.2192881089719357e-01  4.3725390526783932e-02  2.9294144399488950e-02  -3.1617814620525063e-03  6.1220929490209672e-02  5.8309329864613089e-03  2.7042721667248436e-02  1.3569281501584088e-02  7.8510754108207709e-02  -1.1517899339169808e-01  2.4316750413166395e-02  1.9247144340108817e-02  -1.0283136805489888e-01  2.3360666374891044e-02  2.0820967390357700e-02  -8.6788443878212260e-02  9.8710128805587508e-02  1.1272692632602881e-01  -1.3944113390803781e-02  1.7728272573251668e-02  1.4056914627989475e-02  2.5760882664176407e-02  -6.8959135156178769e-02  2.6753895435625386e-02  -1.4617928849270073e-01  -4.3813227613700358e-02  2.6043821285353173e-02  1.3017850958352917e-01  -2.4011170322756455e-02  1.0211669386243516e-02  2.3492650229411147e-02  -4.4138590860063574e-03  2.1426967755684527e-02  2.0554734284761567e-02  5.3147605486379985e-02  1.6927947808065492e-02  7.2110310587323923e-02  9.0888592222889975e-02  1.2716287563133644e-02  1.2248921890397106e-01  1.6042167609979570e-03  1.5532001418065070e-01  -1.6369333867879543e-01  8.1201194998248207e-03  5.6660658098953900e-03  1.4029195335225211e-01  -1.7514666010186850e-01  -1.6305903416066420e-01  -1.1867955100733024e-01  -5.6080713437362116e-02  7.8941626188929314e-03  3.3735668577947762e-02  1.4063269616123866e-01  -4.0430221478577319e-02  -6.5122848330439700e-02  -8.6286824924155806e-02  -1.0524454549907081e-01  8.8772783701418195e-02  2.6548213573968974e-02  6.9600587532074570e-02  1.0313048967003732e-01  2.4976266604303687e-02  2.2653304800666629e-02  5.1900327438330951e-02  2.5674394087422111e-02  2.8249196018374240e-02  3.6365362374224268e-02  3.0211047459016479e-02  3.1647036021857831e-02  3.2414737476299887e-02  3.2130399738851803e-02  -2.9892188215234018e-02  2.0779848384038468e-02  3.0059442722232411e-02  2.5629533703300605e-02  6.4009738510556026e-03  1.7959306040996593e-02  5.7679855687268050e-03  -1.0173177171318942e-02  1.3279803182069800e-03  -7.5100638020260532e-03  -1.9432140746958600e-02  1.5566006407327482e-01  -3.1571421204445935e-02  -4.3229326489487067e-02  -5.3972692334887884e-02  -6.4275231959922421e-02  -7.3973239268157104e-02  -8.3153417714232625e-02  -1.5008393030866746e-01  -9.4449345783211888e-02  -1.0521163372213413e-01  -1.1566944919994050e-01  -1.3613569973774498e-01  -1.2599259888328679e-01  -9.7231413658457375e-02  -1.1755265894095029e-01  -7.5228297537145550e-02  -5.1598765687442837e-02  -1.3610375787867687e-01  -1.5210731309435169e-01  1.6914952777127101e-03  1.5516300332396524e-01  4.5323399893668582e-03  -1.6347966829754132e-01  1.5591211623860490e-01  1.3506513030310452e-03  1.5180729031594040e-01  -1.6345112500982628e-01  -1.6311407020786223e-01  -1.6265974123473900e-01  -1.6315579819948972e-01  -1.6268366105372453e-01  -1.6350837340459642e-01  -1.6285564348425405e-01  -1.6396557910235887e-01  -1.6314228697011074e-01  -1.6429149403119347e-01  -1.6334945863997019e-01  -1.6422278676661681e-01  -1.6308646926354778e-01  -1.6359379557052073e-01  -1.6232207124347420e-01  -1.6250284865035075e-01  -1.6105898181973768e-01  -1.6100108570165209e-01  -1.5939054663141966e-01  -1.5889855633446454e-01  -1.5700110598934125e-01  -1.6054353790369702e-01  -1.5759203268401040e-01  -1.5481792474123607e-01  -1.5770798989252963e-01  -1.5959188289467105e-01  -1.5516907850201020e-01  -1.5226344181845639e-01  -1.5253635762688464e-01  -1.4926854798989514e-01  -1.4942492104517627e-01  -1.4583517408489016e-01  -1.4591431281580011e-01  -1.4225769661985593e-01  -1.4200248918881161e-01  -1.3760804631016904e-01  -1.3746921124713721e-01  -1.3325923689036148e-01  -1.3269450272545738e-01  -1.2832093567843633e-01  -1.2752158470075767e-01  -1.2305395607354944e-01  -1.2203434392908351e-01  -1.1751933902431293e-01  -1.1623980649920132e-01  -1.1174687972484594e-01  -1.1017088158434699e-01  -1.0574762087727542e-01  -1.0389008576606336e-01  -9.9603743201108222e-02  -9.7405464106090023e-02  -9.3350235022936559e-02  -9.0708467324165667e-02  -1.5561898460507215e-01  -1.5724605981995399e-01  -8.6997938226887270e-02  -8.3931592392526996e-02  -8.0643532217324204e-02  -7.7580655339315005e-02  -7.4363066861810850e-02  -7.0954878490013668e-02  -6.8175125268077688e-02  -6.4441234817180046e-02  -1.5105505786586884e-01  -6.2194378058090131e-02  -5.8033194284431135e-02  -5.6094795022620596e-02  -5.1744572595331641e-02  -5.0445310780974487e-02  -4.5735020382348189e-02  -1.5246072248310155e-01  -1.5412235153713297e-01  -1.6471988679638208e-01  -4.4910953752904686e-02  -3.9913271729193185e-02  -3.9651790136545184e-02  -3.4369155425075931e-02  -3.4647565478331352e-02  -2.9137785839724765e-02  -1.6070791538423626e-01  -2.9919034711163910e-02  -2.4186762028986872e-02  -1.4144065576306505e-01  -2.5452509575297974e-02  -1.9566212540454209e-02  -2.1282165104901635e-02  -1.5270037640344217e-02  -1.7326979309217179e-02  -1.1289495616997613e-02  -1.6169277660051831e-01  -1.2811113884856862e-01  -1.3709358772815520e-02  -7.6276881932745609e-03  -1.4828881458228002e-01  -1.4917064707318259e-01  -1.4696577909191402e-01  -1.1231554107072804e-01  -1.0288289140808109e-02  -4.1222974145610205e-03  -7.2158663236180113e-03  -9.7692415397348056e-04  -4.2998630646230527e-03  1.7448632592643469e-03  -4.0833306466269349e-02  -1.3529036613548334e-03  -2.3652114591014819e-02  -6.0371217797894873e-02  -1.6013902368466159e-03  4.2370828065862870e-03  7.5798138659524100e-03  9.9248638715483707e-03  6.5659910384897784e-03  1.2038223053540497e-02  8.7602499972831236e-03  1.4008787100329979e-02  1.0738906456761900e-02  1.5722643690527182e-02  1.2549539400669128e-02  1.7300173643994374e-02  1.4253104174617646e-02  1.8685210137165720e-02  1.5728172713203072e-02  1.9949208984019053e-02  1.7204369055199255e-02  2.1207961976720976e-02  1.8522397709190237e-02  2.2239224655422180e-02  1.9765640163793240e-02  2.3136119016856815e-02  2.0758884952722764e-02  2.3953062492489737e-02  -8.0550979362225550e-02  -9.5286539567908279e-02  2.1778809021269070e-02  2.4644238850018912e-02  2.2749420723842447e-02  2.5303255794001642e-02  -1.4870676594635521e-01  -1.1413618599887830e-01  2.3616287584718024e-02  2.5850148470923713e-02  -1.3119014073640667e-01  -7.7890584498225182e-02  -1.4320498124519521e-01  -1.4360717176411111e-01  -1.5024693933189112e-01  -1.4354552050010755e-01  -1.4893054808410883e-01  -1.4270794649138871e-01  -1.4820117356348680e-01  -1.4128734971609513e-01  -1.4493153581090576e-01  -1.3890639211072556e-01  -1.4258303832285282e-01  -1.3620237449273778e-01  -1.3835329271924621e-01  -1.3294379127970762e-01  -1.3444987760143662e-01  -1.2958696136669473e-01  -1.3053425588238529e-01  -1.2604251790301280e-01  -1.2663205865937596e-01  -1.2247204295333083e-01  -1.2274100486465116e-01  -1.1884205110599716e-01  -1.1889231164297430e-01  -1.1520914509993455e-01  -1.1507039576277388e-01  -1.1161419826617563e-01  -1.1095580706060916e-01  -1.0775863759772915e-01  -1.0807641981954495e-01  -1.0446009765829392e-01  -1.0408544526126823e-01  -1.0085026826584140e-01  -1.0049932908769933e-01  -9.7286549196454741e-02  -9.6697796757911098e-02  -9.3669281588220923e-02  -1.2791509152289432e-01  -1.0433340272302667e-01  -1.1814182118383199e-01  -9.3027911065685101e-02  -8.9974750347740884e-02  -9.0393209202478286e-02  -8.6858779595444233e-02  -8.6240247576854376e-02  -8.3242456842514592e-02  -8.2462069939038221e-02  -7.9575761067405340e-02  -7.8700045476214939e-02  -7.5856823849681509e-02  -8.3128834214022923e-02  -1.5382353567430401e-01  -1.4352682855310100e-01  -7.4999180191466855e-02  -7.2079632568157387e-02  -7.2902273181565364e-02  -6.9124824086036832e-02  -6.8278376695270815e-02  -6.5364677502506074e-02  -6.4421659657776700e-02  -6.1582000518875808e-02  -1.3493848447658344e-01  -6.5951055358096630e-02  -6.0588574645222576e-02  -5.7813763548275963e-02  -1.2654118953759499e-01  -5.6869480533932912e-02  -5.3991742672364465e-02  -5.5212777406629394e-02  -5.1066040287457128e-02  -5.0060453623800613e-02  -4.7018496347163562e-02  -4.7986709168632014e-02  -4.3936726852459057e-02  -4.2989266539837208e-02  -3.9896857940608356e-02  -3.8945415467486547e-02  -3.5764889361051586e-02  -3.6743279919360265e-02  -3.2611611264100504e-02  -3.1607965445618932e-02  -2.8477016146442682e-02  -2.7516119961058332e-02  -2.4361682841342980e-02  -1.3782094498327754e-01  -1.0365997963637892e-01  -1.1840251543427022e-01  -2.3497829794009963e-02  -2.0279385294947341e-02  -2.1156608584536940e-02  -1.6919125402694184e-02  -1.6049972479546783e-02  -1.2688414102072658e-02  -1.7795428221269786e-02  2.4306459950619457e-02  2.6308104515311351e-02  2.4939168299025181e-02  2.6699629613089186e-02  2.5508274721384314e-02  2.7019836428168003e-02  -8.5496916139762527e-02  -4.9839520684562245e-02  -1.6453028116031845e-01  -1.1789919962473167e-02  -8.4941322658807009e-03  -9.5953853734464759e-02  2.1810766147090890e-02  2.6115468892568595e-02  1.2729906645520334e-02  2.5986814570865564e-02  2.7259489830599833e-02  2.8383918301734781e-02  2.8396739592604626e-02  2.7424880771592990e-02  2.8358023551907936e-02  2.7524003510577422e-02  2.8260931024149796e-02  2.7540489718222663e-02  2.8096307266317348e-02  2.7485187223752042e-02  2.7874437625166355e-02  2.7345806766295184e-02  2.7581011458856646e-02  2.7130000800274400e-02  2.7228543412168377e-02  2.6841803642236924e-02  2.6814735149383071e-02  2.6484098231023389e-02  2.6342188022191015e-02  2.6046573747380668e-02  2.5795142007477213e-02  2.5526888542476301e-02  2.5196987564740508e-02  2.4929553362232633e-02  2.4511584273315696e-02  2.4272005499267869e-02  2.3786159866915096e-02  2.3519712126119866e-02  2.2974681975003543e-02  2.2712151218641539e-02  2.2115732225630649e-02  2.7979941347235311e-02  -3.3657381262100938e-02  -6.7372206830713141e-02  -7.4753147173388084e-03  -4.1911511089034745e-03  -5.2015120954187503e-03  -7.4607501500202026e-04  -1.8010139756725599e-03  2.7588007715799983e-03  3.6920784611727507e-03  7.2174196528167417e-03  8.2691740150508137e-03  1.1767692695938430e-02  1.0813400555817030e-02  1.5352317492388219e-02  1.6163476871707036e-02  1.9855505661905293e-02  2.0651700498576682e