<?xml version="1.0"?>
<VTKFile type="UnstructuredGrid"  version="0.1"  >
<UnstructuredGrid>
<Piece  NumberOfPoints="2886" NumberOfCells="5412">
<Points>
<DataArray  type="Float64"  NumberOfComponents="3"  format="ascii">0 0.1 0  0.98 0.1 0  1 0.1 0  1 0 0  1.5 0 0  3 0 0  3 0.3 0  0 0.3 0  0.01975375321854102 0.1 0  0.03918897458218897 0.1 0  0.05831079002627837 0.1 0  0.07712425666319796 0.1 0  0.0956343475259058 0.1 0  0.1138459546796227 0.1 0  0.1317638870668193 0.1 0  0.1493928840275937 0.1 0  0.1667376092280033 0.1 0  0.1838026357802664 0.1 0  0.2005924801287244 0.1 0  0.2171115811543574 0.1 0  0.2333643037107681 0.1 0  0.2493549444060462 0.1 0  0.2650877293306821 0.1 0  0.2805668058011438 0.1 0  0.2957962848620976 0.1 0  0.3107801766802674 0.1 0  0.3255224447361181 0.1 0  0.3400269848175519 0.1 0  0.3542976327080778 0.1 0  0.3683381609158136 0.1 0  0.3821522744564845 0.1 0  0.3957436316838916 0.1 0  0.4091158196437086 0.1 0  0.4222723742184605 0.1 0  0.4352167733293057 0.1 0  0.4479524348643424 0.1 0  0.4604827295467524 0.1 0  0.4728109659990664 0.1 0  0.4849404035409129 0.1 0  0.4968742471455402 0.1 0  0.508615651843175 0.1 0  0.520167721130924 0.1 0  0.5315335063628542 0.1 0  0.5427160117228604 0.1 0  0.5537181940261912 0.1 0  0.564542961924507 0.1 0  0.575193173270606 0.1 0  0.5856716438765114 0.1 0  0.5959811458006617 0.1 0  0.6061243988680743 0.1 0  0.6161040893285659 0.1 0  0.6259228503970299 0.1 0  0.6355832809287655 0.1 0  0.6450879281079505 0.1 0  0.6544393102991295 0.1 0  0.663639896558931 0.1 0  0.6726921201956305 0.1 0  0.6815983691630338 0.1 0  0.6903610031396646 0.1 0  0.6989823343332418 0.1 0  0.7074646404270378 0.1 0  0.7158101645005117 0.1 0  0.7240211149852543 0.1 0  0.7320996585612525 0.1 0  0.7400479319727645 0.1 0  0.7478680336617921 0.1 0  0.755562036504958 0.1 0  0.7631319665092091 0.1 0  0.7705798279317605 0.1 0  0.777907588066146 0.1 0  0.7851171851013118 0.1 0  0.7922105226004981 0.1 0  0.7991894774550319 0.1 0  0.8060558928136696 0.1 0  0.812811583201334 0.1 0  0.8194583352091183 0.1 0  0.8259979035038147 0.1 0  0.8324320194413813 0.1 0  0.8387623808293405 0.1 0  0.8449906627004957 0.1 0  0.8511185094880469 0.1 0  0.8571475426008311 0.1 0  0.8630793533568246 0.1 0  0.8689155114558531 0.1 0  0.8746575581239063 0.1 0  0.8803070109173519 0.1 0  0.885865363938836 0.1 0  0.8913340851680313 0.1 0  0.8967146206523592 0.1 0  0.9020083930695622 0.1 0  0.9072167995950768 0.1 0  0.9123412183131177 0.1 0  0.9173830029719022 0.1 0  0.9223434865647732 0.1 0  0.9272239785872722 0.1 0  0.9320257720706087 0.1 0  0.9367501330378739 0.1 0  0.9413983102716995 0.1 0  0.9459715351562933 0.1 0  0.9504710127113115 0.1 0  0.9548979346500661 0.1 0  0.9592534708344373 0.1 0  0.9635387708980176 0.1 0  0.9677549682252325 0.1 0  0.971903177251235 0.1 0  0.9759844952956497 0.1 0  0.9840000000000086 0.1 0  0.987999999999974 0.1 0  0.9919999999999393 0.1 0  0.9959999999999913 0.1 0  1 0.09591793123533533 0  1 0.09133596463859224 0  1 0.08619288104391448 0  1 0.08041996484521211 0  1 0.07394008421771697 0  1 0.06666666567302955 0  1 0.05850252932209174 0  1 0.04933859630113544 0  1 0.03905242821848202 0  1 0.02750659386753798 0  1 0.01454683679239736 0  1.015625 0 0  1.03125 0 0  1.046875 0 0  1.0625 0 0  1.078125 0 0  1.09375 0 0  1.109375 0 0  1.125 0 0  1.140625 0 0  1.15625 0 0  1.171875 0 0  1.1875 0 0  1.203125 0 0  1.21875 0 0  1.234375 0 0  1.25 0 0  1.265625 0 0  1.28125 0 0  1.296875 0 0  1.3125 0 0  1.328125 0 0  1.34375 0 0  1.359375 0 0  1.375 0 0  1.390625 0 0  1.40625 0 0  1.421875 0 0  1.4375 0 0  1.453125 0 0  1.46875 0 0  1.484375 0 0  1.515920751924515 0 0  1.531989369316721 0 0  1.54820720925872 0 0  1.564575665560501 0 0  1.581096138674279 0 0  1.597770029901263 0 0  1.614598783332311 0 0  1.631583831055205 0 0  1.64872661129721 0 0  1.666028606716533 0 0  1.683491276608443 0 0  1.701116134125304 0 0  1.718904673324128 0 0  1.736858414799339 0 0  1.754978895814663 0 0  1.773267661782904 0 0  1.791726281103402 0 0  1.810356325314689 0 0  1.8291593848892 0 0  1.848137076690385 0 0  1.867291007717254 0 0  1.886622833871288 0 0  1.90613418642363 0 0  1.925826753299799 0 0  1.945702199101513 0 0  1.96576223584749 0 0  1.986008569283268 0 0  2.006442931928877 0 0  2.02706707547783 0 0  2.047882750887917 0 0  2.06889175187935 0 0  2.090095860038271 0 0  2.111496891648636 0 0  2.133096679109554 0 0  2.154897066851056 0 0  2.176899916687499 0 0  2.199107102752146 0 0  2.22152053937028 0 0  2.244142122958061 0 0  2.266973806444078 0 0  2.290017523268154 0 0  2.313275249499252 0 0  2.336748971745516 0 0  2.360440702338606 0 0  2.384352453384031 0 0  2.408486280477412 0 0  2.432844240041185 0 0  2.457428414757088 0 0  2.482240901796653 0 0  2.507283830121838 0 0  2.532559332080812 0 0  2.558069568787417 0 0  2.583816724966441 0 0  2.60980299606584 0 0  2.636030600971886 0 0  2.662501790984011 0 0  2.689218818279327 0 0  2.716183964547616 0 0  2.743399548861297 0 0  2.77086788244719 0 0  2.798591312896326 0 0  2.826572223178268 0 0  2.854812990138617 0 0  2.883316031690714 0 0  2.912083780657189 0 0  2.941118704633482 0 0  2.970423276998917 0 0  3 0.02999999999994495 0  3 0.05999999999987042 0  3 0.089999999999783 0  3 0.119999999999701 0  3 0.149999999999619 0  3 0.179999999999692 0  3 0.2099999999997737 0  3 0.2399999999998511 0  3 0.2699999999999185 0  2.970138294777171 0.3 0  2.940375666438236 0.3 0  2.910711782853056 0.3 0  2.881146331305122 0.3 0  2.851678975030285 0.3 0  2.822309388626621 0.3 0  2.793037250095074 0.3 0  2.76386223529133 0.3 0  2.734784017903872 0.3 0  2.705802289276642 0.3 0  2.676916713794697 0.3 0  2.648126987654635 0.3 0  2.619432780406184 0.3 0  2.590833779385199 0.3 0  2.562329669847737 0.3 0  2.533920134950189 0.3 0  2.505604855727852 0.3 0  2.477383539822502 0.3 0  2.449255847639465 0.3 0  2.421221492569094 0.3 0  2.393280152486815 0.3 0  2.36543151914496 0.3 0  2.337675285481809 0.3 0  2.310011142385583 0.3 0  2.282438797441587 0.3 0  2.254957931061538 0.3 0  2.227568248063605 0.3 0  2.200269436651085 0.3 0  2.173061204949961 0.3 0  2.145943251515011 0.3 0  2.118915272469994 0.3 0  2.091976978084957 0.3 0  2.065128060700849 0.3 0  2.038368218849433 0.3 0  2.01169717777258 0.3 0  1.985114624111908 0.3 0  1.958620267850966 0.3 0  1.93221382054972 0.3 0  1.905894991850698 0.3 0  1.879663489459713 0.3 0  1.853519019126419 0.3 0  1.827461291053897 0.3 0  1.801490031354372 0.3 0  1.775604937580312 0.3 0  1.74980572560258 0.3 0  1.724092118631866 0.3 0  1.698463829173586 0.3 0  1.672920575782554 0.3 0  1.647462076974085 0.3 0  1.622088043536933 0.3 0  1.5967981978949 0.3 0  1.571592267767068 0.3 0  1.546469970305736 0.3 0  1.521431023814044 0.3 0  1.496475156230927 0.3 0  1.471602093687753 0.3 0  1.446811560490646 0.3 0  1.422103279101731 0.3 0  1.397476971708191 0.3 0  1.37293238939876 0.3 0  1.348469231419202 0.3 0  1.324087248732772 0.3 0  1.299786165921677 0.3 0  1.275565710847046 0.3 0  1.251425617644257 0.3 0  1.227365618676339 0.3 0  1.203385446174014 0.3 0  1.179484853067473 0.3 0  1.155663548773374 0.3 0  1.131921292279077 0.3 0  1.108257802159295 0.3 0  1.084672829009693 0.3 0  1.061166115303374 0.3 0  1.037737392995421 0.3 0  1.01438640299116 0.3 0  0.991112899770314 0.3 0  0.9679166155523955 0.3 0  0.944797284182564 0.3 0  0.921754678526042 0.3 0  0.8987885143602501 0.3 0  0.8758985548820624 0.3 0  0.8530845484099929 0.3 0  0.8303462351786988 0.3 0  0.8076833651172373 0.3 0  0.7850956864865304 0.3 0  0.7625829601354557 0.3 0  0.7401449314598274 0.3 0  0.717781337993959 0.3 0  0.6954919649675473 0.3 0  0.6732765357561226 0.3 0  0.6511348120768439 0.3 0  0.6290665642016573 0.3 0  0.6070715355430467 0.3 0  0.5851494825775325 0.3 0  0.5633001690203812 0.3 0  0.5415233562273221 0.3 0  0.5198187909431873 0.3 0  0.4981862401387795 0.3 0  0.4766254686134248 0.3 0  0.4551362360485234 0.3 0  0.4337182975262159 0.3 0  0.4123714223228037 0.3 0  0.3910953802377493 0.3 0  0.3698899313205595 0.3 0  0.3487548463710963 0.3 0  0.3276898864081783 0.3 0  0.3066948129116018 0.3 0  0.2857694003037476 0.3 0  0.2649134227095047 0.3 0  0.2441266417321288 0.3 0  0.2234088223399122 0.3 0  0.2027597568977288 0.3 0  0.1821792020676698 0.3 0  0.1616669305402443 0.3 0  0.1412227158799362 0.3 0  0.12084633013886 0.3 0  0.1005375673448281 0.3 0  0.08029618164595353 0.3 0  0.06012194778526769 0.3 0  0.04001466495039718 0.3 0  0.01997408913631205 0.3 0  0 0.2800000000000553 0  0 0.2600000000001105 0  0 0.2400000000001658 0  0 0.2200000000002211 0  0 0.2000000000002764 0  0 0.1800000000002244 0  0 0.1600000000001691 0  0 0.140000000000115 0  0 0.1200000000000564 0  1.13346801534201 0.01255848438672509 0  1.003577645172735 0.09351054173913405 0  0.9777559943702486 0.1034978156913738 0  0.9524533750752109 0.1040889939962738 0  0.9296242411226409 0.1041520033606139 0  0.9046110503652111 0.104409422380137 0  0.8777709649694228 0.1053360318797398 0  0.8483859145648608 0.1061007868330701 0  0.8162363822948977 0.1052777104363292 0  0.7893110024210437 0.1060761643971561 0  0.7587949382612539 0.1067265405088633 0  0.7280603867732535 0.1069398153264939 0  0.6947001989413015 0.1075609887579097 0  0.6590363283767549 0.1076715322596598 0  0.6210028614493155 0.1072970410408442 0  1.1953125 0.01353164693413185 0  1.258193991486058 0.01269648635163345 0  1.3201967268638 0.01407907077719561 0  1.383538555392096 0.01434101079053473 0  1.445312500000001 0.01303671693628424 0  1.508925448095738 0.01398525724792267 0  0.9939176689634008 0.1034638089837981 0  1.120967497222226 0.2796788492172345 0  1.572835902117391 0.01424132418857359 0  1.637573277451887 0.01212536916586023 0  1.709730776795181 0.01466855431023635 0  1.005631976950563 0.07074019818158772 0  1.784944696816299 0.01454708406461822 0  0.5805605730631225 0.1101465090472147 0  1.855621181165637 0.01550931272897607 0  0.5366111276616774 0.1096761308243709 0  1.935200147913231 0.01760344159641829 0  1.214922267975168 0.2799787705802257 0  1.31178773425331 0.2792
[...]
<PointData  Scalars="pressure"> 
<DataArray  type="Float64"  Name="pressure"  format="ascii">1.6092640126988600e-01  -1.6480958434437384e-01  -2.1815196765324082e-01  -1.6237966240073914e-01  -4.0639698757831799e-02  0.0000000000000000e+00  0.0000000000000000e+00  1.6093331429912219e-01  1.5500027895920049e-01  1.4916964890431059e-01  1.4343294560270856e-01  1.3778864481577907e-01  1.3223523402421566e-01  1.2677123481100011e-01  1.2139521209727804e-01  1.1610569789566623e-01  1.1090129653420669e-01  1.0578062025616325e-01  1.0074226701295780e-01  9.5784888007186778e-02  9.0907169177118857e-02  8.6107751989181580e-02  8.1385340431755521e-02  7.6738717721482830e-02  7.2166497792429618e-02  6.7667487241379970e-02  6.3240447427569527e-02  5.8884086120995431e-02  5.4597241001058193e-02  5.0378780889226614e-02  4.6227371943826645e-02  4.2141932318416009e-02  3.8121187622644298e-02  3.4164044372390130e-02  3.0269455010319787e-02  2.6436167790241733e-02  2.2663012873311305e-02  1.8948946593372335e-02  1.5292848363330169e-02  1.1693539777972165e-02  8.1500328511237823e-03  4.6611110721474364e-03  1.2257595432956009e-03  -2.1571790012477124e-03  -5.4887634150548410e-03  -8.7696960096164435e-03  -1.2001730264075822e-02  -1.5185492814257092e-02  -1.8322094381825908e-02  -2.1412774467288221e-02  -2.4458541507715176e-02  -2.7459877672991458e-02  -3.0418745424520621e-02  -3.3335654839168630e-02  -3.6211710500366118e-02  -3.9048027779843598e-02  -4.1845581174921598e-02  -4.4605405777012060e-02  -4.7328661843268685e-02  -5.0016268251386144e-02  -5.2669181113675190e-02  -5.5288343545064109e-02  -5.7875282436705713e-02  -6.0430400374443638e-02  -6.2954935776269594e-02  -6.5449541314688553e-02  -6.7916188524771298e-02  -7.0355280534544928e-02  -7.2767107866403807e-02  -7.5153348621633753e-02  -7.7515521743439217e-02  -7.9853373746840470e-02  -8.2168904983410035e-02  -8.4462805190924597e-02  -8.6735394627016085e-02  -8.8988198345782560e-02  -9.1222091057043625e-02  -9.3437976357898453e-02  -9.5637507402871885e-02  -9.7820824634590436e-02  -9.9988348765073662e-02  -1.0214078810682307e-01  -1.0428134513588135e-01  -1.0640920246984222e-01  -1.0852502264428789e-01  -1.1063056440955846e-01  -1.1272620769084120e-01  -1.1481283870498338e-01  -1.1689149504682401e-01  -1.1896388855308795e-01  -1.2103044066574195e-01  -1.2309132410498547e-01  -1.2514866728697566e-01  -1.2720322251942237e-01  -1.2925593047329195e-01  -1.3130791905476788e-01  -1.3336014414044725e-01  -1.3541389560128983e-01  -1.3747044890447294e-01  -1.3953116691458048e-01  -1.4159721705456210e-01  -1.4366979354626144e-01  -1.4574722048670413e-01  -1.4781128065383717e-01  -1.5017489565176217e-01  -1.5086996103223294e-01  -1.5385869145877348e-01  -1.4897708556444264e-01  -1.5433710544876905e-01  -1.5284065032858149e-01  -2.0470683681065402e-01  -1.8289718941643235e-01  -1.7625822757515930e-01  -1.7144113876427122e-01  -1.6819537181198901e-01  -1.6576181014803373e-01  -1.6394060195322122e-01  -1.6260813570353980e-01  -1.6180991632277478e-01  -1.6161730358852727e-01  -1.6202680693965565e-01  -1.6282137258541962e-01  -1.6319939719429763e-01  -1.6299737898495639e-01  -1.6233086553539727e-01  -1.6129063493825987e-01  -1.5992024947792918e-01  -1.5820436047680614e-01  -1.5612987896400199e-01  -1.5372538558258034e-01  -1.5100765116535278e-01  -1.4798002891310430e-01  -1.4465556978395233e-01  -1.4104458474765039e-01  -1.3715840399643944e-01  -1.3301673428012245e-01  -1.2863175927594289e-01  -1.2401515747062396e-01  -1.1918471316380266e-01  -1.1415882619564797e-01  -1.0894715784361021e-01  -1.0358025179247564e-01  -9.8075579458012180e-02  -9.2449092882103567e-02  -8.6731981312072992e-02  -8.0942910044608185e-02  -7.5111781390125532e-02  -6.9261637651292854e-02  -6.3415896216597642e-02  -5.7607435904009824e-02  -5.1858015039794293e-02  -4.6194871677936088e-02  -3.5116246241973459e-02  -2.9712418941024651e-02  -2.4438196441099833e-02  -1.9329874626015500e-02  -1.4415993193565084e-02  -9.6985309163941207e-03  -5.2068159975957543e-03  -9.4662376302368325e-04  3.0315568423375742e-03  6.7527470776705999e-03  1.0215584638610378e-02  1.3398540376615449e-02  1.6304174879845725e-02  1.8939835697542606e-02  2.1309993022598173e-02  2.3420423390323242e-02  2.5287496609370755e-02  2.6912335317310472e-02  2.8310706096990147e-02  2.9514301504471603e-02  3.0512389501842197e-02  3.1336641867154034e-02  3.2001553705744555e-02  3.2516051822077549e-02  3.2902631412732780e-02  3.3166592105850989e-02  3.3339469806475598e-02  3.3412624491440272e-02  3.3407511517581569e-02  3.3329394494005189e-02  3.3186328462487959e-02  3.2987992043410408e-02  3.2743669722698182e-02  3.2457488992634141e-02  3.2130257343819739e-02  3.1768987050875851e-02  3.1374296617174321e-02  3.0948721662002680e-02  3.0493161461999249e-02  3.0007824323808309e-02  2.9492872734464850e-02  2.8947992638777124e-02  2.8371727388094310e-02  2.7764129366039184e-02  2.7122454508784768e-02  2.6445197756352509e-02  2.5733160246026336e-02  2.4981413543086018e-02  2.4187717405072629e-02  2.3356332849433552e-02  2.2477488413429336e-02  2.1558128254169751e-02  2.0587760671185583e-02  1.9574990127448233e-02  1.8512135416747746e-02  1.7395515677988492e-02  1.6235435106532678e-02  1.5018312669591664e-02  1.3755103780762418e-02  1.2440032359756971e-02  1.1072082190452349e-02  9.6516110001003009e-03  8.1800051450405600e-03  6.6600595804037748e-03  5.0814503543296832e-03  3.4607793493612485e-03  1.7819287892023499e-03  0.0000000000000000e+00  0.0000000000000000e+00  0.0000000000000000e+00  0.0000000000000000e+00  0.0000000000000000e+00  0.0000000000000000e+00  0.0000000000000000e+00  0.0000000000000000e+00  0.0000000000000000e+00  1.9406739214881054e-03  3.7632982238051866e-03  5.5608410510754437e-03  7.3056119467229414e-03  9.0004230186244965e-03  1.0643312536454345e-02  1.2232958889672433e-02  1.3767415921244782e-02  1.5243782922899048e-02  1.6659963928268566e-02  1.8012106355869771e-02  1.9297916035523003e-02  2.0512423627138298e-02  2.1652719820017163e-02  2.2713937859326669e-02  2.3689341055735048e-02  2.4578351695863955e-02  2.5369674243060261e-02  2.6058382506556461e-02  2.6638020764817590e-02  2.7101509978793265e-02  2.7441971609009446e-02  2.7653619795378875e-02  2.7725641551253139e-02  2.7656095501985018e-02  2.7433782141411955e-02  2.7056241083090026e-02  2.6512579317495233e-02  2.5797937519743006e-02  2.4909940152595827e-02  2.3838459770058662e-02  2.2578352064034655e-02  2.1144695234826535e-02  1.9524363221138163e-02  1.7691490235339179e-02  1.5687055747404130e-02  1.3487654617716232e-02  1.1095401272458524e-02  8.5119208874397580e-03  5.7447584248465598e-03  2.7860343183619698e-03  -3.5098022482233472e-04  -3.6742547928188540e-03  -7.1731565081598189e-03  -1.0858720312181663e-02  -1.4716306258268638e-02  -1.8746514750205397e-02  -2.2941512492067204e-02  -2.7304044949531377e-02  -3.1821083610060100e-02  -3.6490235945797325e-02  -4.1300249697596360e-02  -4.6238309583624924e-02  -5.1295656237385932e-02  -5.6456550876258310e-02  -6.1697645326948082e-02  -6.6960415676526525e-02  -7.2287905572886182e-02  -7.7597240145017524e-02  -8.2827255240833064e-02  -8.7980196238773289e-02  -9.2983996136790176e-02  -9.7816538766361399e-02  -1.0237085750939086e-01  -1.0663876149019615e-01  -1.1050795339888925e-01  -1.1396561020667545e-01  -1.1689863604287787e-01  -1.1931062677048015e-01  -1.2106813827042774e-01  -1.2218661225006468e-01  -1.2259669587352721e-01  -1.2217401262935505e-01  -1.2109203617678793e-01  -1.1922652459894337e-01  -1.1659146023694872e-01  -1.1330991408998996e-01  -1.0941189050174231e-01  -1.0502344765019159e-01  -1.0021525746837766e-01  -9.4989978106853820e-02  -8.9478925069266468e-02  -8.3720718816695711e-02  -7.7803427091542351e-02  -7.1731784863074438e-02  -6.5532551641374170e-02  -5.9255317460795869e-02  -5.2912663857231569e-02  -4.6515078730770446e-02  -4.0084930329544091e-02  -3.3627093237936424e-02  -2.7158884135383102e-02  -2.0683111362225021e-02  -1.4202213589407882e-02  -7.7270070508528368e-03  -1.2586821312540386e-03  5.2016158388164769e-03  1.1650594243158055e-02  1.8085331675884116e-02  2.4504720640081135e-02  3.0908279004410646e-02  3.7294557039576938e-02  4.3663382216932223e-02  5.0013229362417547e-02  5.6344440718811700e-02  6.2656330599537832e-02  6.8948647246318065e-02  7.5221302253745570e-02  8.1474007821909500e-02  8.7706719129290192e-02  9.3919407472283306e-02  1.0011198459163589e-01  1.0628442914544615e-01  1.1243674511110358e-01  1.1856894669997217e-01  1.2468101710457370e-01  1.3077302667138152e-01  1.3684499899123997e-01  1.4289696484409092e-01  1.4892897893909343e-01  1.5494107807693391e-01  1.6093328762525186e-01  1.6093300041340181e-01  1.6093229874999215e-01  1.6093119714661186e-01  1.6092985897316675e-01  1.6092851941840081e-01  1.6092741551241901e-01  1.6092670917464852e-01  1.6092642299743493e-01  -1.5456227204980277e-01  -1.8753206467415509e-01  -1.5384176268561450e-01  -1.4058388506719632e-01  -1.3037499830059043e-01  -1.2006896590517450e-01  -1.0974947138498449e-01  -9.9073704267670024e-02  -8.7929811700995369e-02  -7.8926195211329694e-02  -6.8979852413015422e-02  -5.9169533177370642e-02  -4.8694380625373061e-02  -3.7637969519215553e-02  -2.5961835210788549e-02  -1.4270425683845880e-01  -1.2619497920166839e-01  -1.0640126034431352e-01  -8.3773005034382911e-02  -6.0785673967266494e-02  -3.7907641596805097e-02  -1.6593834075814423e-01  -1.2105332764261116e-01  -1.7271499757541348e-02  8.4961068404208650e-05  1.4430081240834839e-02  -1.6767990261948829e-01  2.4280733852245946e-02  -1.3637763691821542e-02  2.9633456977242515e-02  -3.1352477571664682e-04  3.2489809597919111e-02  -1.1166415827758246e-01  -9.4754383734604777e-02  3.3285728841721991e-02  -7.4497613358340820e-02  1.3493537773496491e-02  -4.8357246814348262e-02  3.2786779887068830e-02  2.8351414971738164e-02  -1.6011926644082919e-01  3.1507640421583660e-02  -2.4890084732240123e-02  -1.2116420892651507e-01  4.3752552051461696e-02  2.9706334719778064e-02  -1.9592077751523257e-03  6.1249199969559312e-02  6.9866370784120524e-03  2.7382416636373811e-02  1.4681934751723007e-02  7.8539664413155852e-02  -1.1466330023807529e-01  2.4602020161270836e-02  2.0317663550974713e-02  -1.0251450868658164e-01  2.4375960473267334e-02  2.1054525487668674e-02  -8.6597229133148365e-02  9.8739455810307006e-02  1.1275641637083973e-01  -1.2679348084729512e-02  1.7922857777149952e-02  1.4211370446114577e-02  2.6707401785663592e-02  -6.8840078064965740e-02  2.7579476882685222e-02  -1.4675947482077989e-01  -4.3743202123963466e-02  2.6765810755181890e-02  1.3020811217275477e-01  -2.3959629388428359e-02  1.0330131365790546e-02  2.4064794426603055e-02  -4.3721763771322093e-03  2.1462139261695299e-02  2.1014185369276794e-02  5.3179446818909216e-02  1.7279116414729855e-02  7.2141260494190146e-02  9.0919055784543776e-02  1.2959919285947492e-02  1.2251931484000361e-01  1.6276201745405729e-03  1.5534987511566042e-01  -1.6281093961933002e-01  8.2567536196967925e-03  5.7439525096098917e-03  1.4032197644359035e-01  -1.7427861373681586e-01  -1.6216894616136168e-01  -1.1749577672494810e-01  -5.5991833305936253e-02  7.9320881284221795e-03  3.3769161632794635e-02  1.4066233256661623e-01  -3.9007609459415941e-02  -6.3600101268754497e-02  -8.4764449457829863e-02  -1.0383347712068845e-01  8.8801940053619910e-02  2.7439316534609858e-02  6.9629210312410747e-02  1.0316076172113539e-01  2.5623777586504880e-02  2.2912497229936536e-02  5.1928080277824883e-02  2.5984147110629050e-02  2.8622896539247780e-02  3.6391841586140360e-02  3.0668606104374455e-02  3.2225110150159969e-02  3.3171601704285472e-02  3.3114693394166249e-02  -2.7450281881411638e-02  2.0804287390277572e-02  3.1375145938385841e-02  2.7303448841548793e-02  6.4224390304594261e-03  1.9990720667376848e-02  8.0964553184182074e-03  -7.7006476300521915e-03  1.3491742692311039e-03  -7.4929803119998563e-03  -1.9420564068447322e-02  1.5568979393576063e-01  -3.1567905481559862e-02  -4.3236677836984434e-02  -5.3993877626089239e-02  -6.4314286583843069e-02  -7.4034285686511173e-02  -8.3241251191002591e-02  -1.4910714296428548e-01  -9.4580035066286386e-02  -1.0539582922450563e-01  -1.1592070332517035e-01  -1.3502124320726860e-01  -1.2632803187699676e-01  -9.5599178891481618e-02  -1.1620732762094069e-01  -7.3278090938861173e-02  -4.9345262711268822e-02  -1.3654549503039795e-01  -1.5336711131017736e-01  1.7128694054485112e-03  1.5519297525737097e-01  4.5964209368025161e-03  -1.6259300096342316e-01  1.5594177667599662e-01  1.3747703707523097e-03  1.5183729646123609e-01  -1.6256337428480733e-01  -1.6222508540432173e-01  -1.6176830946012752e-01  -1.6226728193886342e-01  -1.6179287084079236e-01  -1.6262149360569136e-01  -1.6196607129107604e-01  -1.6308041775159579e-01  -1.6225421280443464e-01  -1.6340716329610452e-01  -1.6246212164435100e-01  -1.6333801029986308e-01  -1.6219816259233005e-01  -1.6270818886340394e-01  -1.6143208828271013e-01  -1.6161791645231816e-01  -1.6016769632306427e-01  -1.6011808646642400e-01  -1.5849724128752454e-01  -1.5801413371770809e-01  -1.5609809758404747e-01  -1.5967707974938891e-01  -1.5668472524090621e-01  -1.5389394305183660e-01  -1.5683940086662454e-01  -1.5875329941532501e-01  -1.5424396495975431e-01  -1.5131483071510882e-01  -1.5158979293405309e-01  -1.4829012983955561e-01  -1.4845126508901965e-01  -1.4482142246743415e-01  -1.4490739068288050e-01  -1.4120584068583195e-01  -1.4095621868691283e-01  -1.3650351604269109e-01  -1.3637354933843943e-01  -1.3210517975328154e-01  -1.3154420044841175e-01  -1.2710855612039995e-01  -1.2630935649812208e-01  -1.2177778928678437e-01  -1.2075398985629898e-01  -1.1617551101144437e-01  -1.1488581044849419e-01  -1.1033270118372829e-01  -1.0873874951088627e-01  -1.0426132670686813e-01  -1.0237712110840035e-01  -9.8045458759980664e-02  -9.5811259088437864e-02  -9.1722330991244633e-02  -8.9030397993918792e-02  -1.5477601500125662e-01  -1.5645112223959373e-01  -8.5304595451266521e-02  -8.2176823775452615e-02  -7.8889015945529176e-02  -7.5757130731357689e-02  -7.2557817613674774e-02  -6.9067319934707022e-02  -6.6328013609338918e-02  -6.2499484199945089e-02  -1.5010055069048600e-01  -6.0314448189261620e-02  -5.6047671159562037e-02  -5.4209696994026696e-02  -4.9730237213236383e-02  -4.8536007600193255e-02  -4.3701255020863118e-02  -1.5165388618990744e-01  -1.5339183546892773e-01  -1.6383727276180310e-01  -4.3005255121615731e-02  -3.7874560202034620e-02  -3.7760812540059925e-02  -3.2339881970204459e-02  -3.2782027711724532e-02  -2.7130420633308654e-02  -1.5991551208537289e-01  -2.8089226204599037e-02  -2.2214102562522622e-02  -1.4037570736809699e-01  -2.3667310602669644e-02  -1.7638939049628679e-02  -1.9547661062257710e-02  -1.3397188428477624e-02  -1.5645643078250778e-02  -9.4782697304628440e-03  -1.6079926059845503e-01  -1.2688872145321153e-01  -1.2087655249155267e-02  -5.8834445871163649e-03  -1.4752603008624138e-01  -1.4849422743017668e-01  -1.4612914833629814e-01  -1.1090776417544046e-01  -8.7265900999919845e-03  -2.4469966740918092e-03  -5.7179398662418196e-03  6.2622265352417635e-04  -2.8618886877985359e-03  3.2755481991961258e-03  -3.8675679267173968e-02  5.1750300953754555e-04  -2.1506014030592643e-02  -5.8334759952255830e-02  -2.2020128068664857e-04  5.6979425749112272e-03  9.2048340307155588e-03  1.1469191197333804e-02  7.9615233264552776e-03  1.3505262136076692e-02  1.0095740038929173e-02  1.5401058582668948e-02  1.2017226059859287e-02  1.7041751017272622e-02  1.3774914890952075e-02  1.8553752188891885e-02  1.5430980783169682e-02  1.9877534078780061e-02  1.6862547889005222e-02  2.1086533838881195e-02  1.8300131458123644e-02  2.2295399597869782e-02  1.9583132170763965e-02  2.3281044406545260e-02  2.0795305567442180e-02  2.4136189085783313e-02  2.1761264500980891e-02  2.4916209543172779e-02  -7.8732661864187869e-02  -9.3698865564513054e-02  2.2756399008298667e-02  2.5573713457191279e-02  2.3703458084024170e-02  2.6202822023853184e-02  -1.4772904778937271e-01  -1.1275947843346480e-01  2.4548220592592890e-02  2.6721265927867496e-02  -1.3003006717026344e-01  -7.6156535966999062e-02  -1.4248098454123503e-01  -1.4298263849958148e-01  -1.4969185217587497e-01  -1.4303947305971068e-01  -1.4851546264152013e-01  -1.4232656692041432e-01  -1.4795155092531889e-01  -1.4103547659354210e-01  -1.4481302027554596e-01  -1.3876695749322018e-01  -1.4258913079927568e-01  -1.3615751284150662e-01  -1.3844215692278614e-01  -1.3296802650034184e-01  -1.3459237174626015e-01  -1.2965978101676001e-01  -1.3070534988465804e-01  -1.2614433155028706e-01  -1.2681518194512215e-01  -1.2258905563919745e-01  -1.2292478017544044e-01  -1.1896472609175916e-01  -1.1907058211655068e-01  -1.1533199288380903e-01  -1.1523937019037668e-01  -1.1173375512833844e-01  -1.1111175828225550e-01  -1.0786869160804315e-01  -1.0814442315062495e-01  -1.0452785298920067e-01  -1.0418976164850531e-01  -1.0091665961400928e-01  -1.0060031960238726e-01  -9.7351295122238612e-02  -9.6790474492455675e-02  -9.3730102235957222e-02  -1.2785475499871532e-01  -1.0435117932029925e-01  -1.1819362610649685e-01  -9.3112862774733643e-02  -9.0031479625907171e-02  -9.0420861473338041e-02  -8.6886334964731929e-02  -8.6292850129876447e-02  -8.3270275819315009e-02  -8.2510251066107168e-02  -7.9602297852038012e-02  -7.8743616654774917e-02  -7.5880482786255934e-02  -8.3130270868072509e-02  -1.5350224709509272e-01  -1.4369089526501438e-01  -7.5038121064521457e-02  -7.2100981513023368e-02  -7.2906041581354580e-02  -6.9128166934655275e-02  -6.8297521068014858e-02  -6.5368221349139888e-02  -6.4438239637771622e-02  -6.1584833224921462e-02  -1.3519316601507403e-01  -6.5938009729796035e-02  -6.0602496682261787e-02  -5.7815859566677424e-02  -1.2678829331505417e-01  -5.6880788475106595e-02  -5.3992449035264296e-02  -5.5202966128034561e-02  -5.1056058529376079e-02  -5.0059864866961228e-02  -4.7008659023125149e-02  -4.7966107618623063e-02  -4.3917687918131984e-02  -4.2979388058337432e-02  -3.9878934449087203e-02  -3.8935232118063622e-02  -3.5747711077342967e-02  -3.6717753249851486e-02  -3.2587794160749167e-02  -3.1591189028498237e-02  -2.8454422030213210e-02  -2.7499355901791873e-02  -2.4339844397817365e-02  -1.3734027370926760e-01  -1.0379595067491304e-01  -1.1861673970953361e-01  -2.3480872197194982e-02  -2.0258028788928725e-02  -2.1129975413884606e-02  -1.6893567023862677e-02  -1.6028815103756693e-02  -1.2663691211267473e-02  -1.7764472537331006e-02  2.5220098711734463e-02  2.7154765254404620e-02  2.5834787488479286e-02  2.7522344468632866e-02  2.6385751247251784e-02  2.7820303354812118e-02  -8.5567546809752537e-02  -4.8064929065641734e-02  -1.6364699587629325e-01  -1.1768795486169778e-02  -8.4699006759296862e-03  -9.6065749157194610e-02  2.3088113669394169e-02  2.7083344213004481e-02  1.4434194713508401e-02  2.6846068885350564e-02  2.8038517658136301e-02  2.9102535439150708e-02  2.9091334780340480e-02  2.8183300770162619e-02  2.9029252899257337e-02  2.8261211996083765e-02  2.8909363520876401e-02  2.8257081678173292e-02  2.8723858429496436e-02  2.8180514850605277e-02  2.8480883220760787e-02  2.8020250620282121e-02  2.8167228667830970e-02  2.7784117561788408e-02  2.7794392514438295e-02  2.7474486491408687e-02  2.7360373327513881e-02  2.7094189739908150e-02  2.6866960792384469e-02  2.6632427565969768e-02  2.6299120552206377e-02  2.6089538030107946e-02  2.5679871262892708e-02  2.5469360152671292e-02  2.4973513342746678e-02  2.4787384694917917e-02  2.4226733456783160e-02  2.4007060239024020e-02  2.3392980891520740e-02  2.3180965566472103e-02  2.2513257199973873e-02  2.8783499348970426e-02  -3.3625143891853275e-02  -6.7403784588947482e-02  -7.4540549259570696e-03  -4.1671886559311762e-03  -5.1743142835209413e-03  -7.1952439187785171e-04  -1.7711217754704687e-03  2.7877038821205462e-03  3.7181599929958426e-03  7.2455868216411848e-03  8.2949767368791939e-03  1.1795314754795273e-02  1.0843380757829086e-02  1.5381565275138474e-02  1.6190745127260178e-02  1.9884201952387531e-02  2.0678784386059690e-02