<?xml version="1.0"?>
<VTKFile type="UnstructuredGrid"  version="0.1"  >
<UnstructuredGrid>
<Piece  NumberOfPoints="2886" NumberOfCells="5412">
<Points>
<DataArray  type="Float64"  NumberOfComponents="3"  format="ascii">0 0.1 0  0.98 0.1 0  1 0.1 0  1 0 0  1.5 0 0  3 0 0  3 0.3 0  0 0.3 0  0.01975375321854102 0.1 0  0.03918897458218897 0.1 0  0.05831079002627837 0.1 0  0.07712425666319796 0.1 0  0.0956343475259058 0.1 0  0.1138459546796227 0.1 0  0.1317638870668193 0.1 0  0.1493928840275937 0.1 0  0.1667376092280033 0.1 0  0.1838026357802664 0.1 0  0.2005924801287244 0.1 0  0.2171115811543574 0.1 0  0.2333643037107681 0.1 0  0.2493549444060462 0.1 0  0.2650877293306821 0.1 0  0.2805668058011438 0.1 0  0.2957962848620976 0.1 0  0.3107801766802674 0.1 0  0.3255224447361181 0.1 0  0.3400269848175519 0.1 0  0.3542976327080778 0.1 0  0.3683381609158136 0.1 0  0.3821522744564845 0.1 0  0.3957436316838916 0.1 0  0.4091158196437086 0.1 0  0.4222723742184605 0.1 0  0.4352167733293057 0.1 0  0.4479524348643424 0.1 0  0.4604827295467524 0.1 0  0.4728109659990664 0.1 0  0.4849404035409129 0.1 0  0.4968742471455402 0.1 0  0.508615651843175 0.1 0  0.520167721130924 0.1 0  0.5315335063628542 0.1 0  0.5427160117228604 0.1 0  0.5537181940261912 0.1 0  0.564542961924507 0.1 0  0.575193173270606 0.1 0  0.5856716438765114 0.1 0  0.5959811458006617 0.1 0  0.6061243988680743 0.1 0  0.6161040893285659 0.1 0  0.6259228503970299 0.1 0  0.6355832809287655 0.1 0  0.6450879281079505 0.1 0  0.6544393102991295 0.1 0  0.663639896558931 0.1 0  0.6726921201956305 0.1 0  0.6815983691630338 0.1 0  0.6903610031396646 0.1 0  0.6989823343332418 0.1 0  0.7074646404270378 0.1 0  0.7158101645005117 0.1 0  0.7240211149852543 0.1 0  0.7320996585612525 0.1 0  0.7400479319727645 0.1 0  0.7478680336617921 0.1 0  0.755562036504958 0.1 0  0.7631319665092091 0.1 0  0.7705798279317605 0.1 0  0.777907588066146 0.1 0  0.7851171851013118 0.1 0  0.7922105226004981 0.1 0  0.7991894774550319 0.1 0  0.8060558928136696 0.1 0  0.812811583201334 0.1 0  0.8194583352091183 0.1 0  0.8259979035038147 0.1 0  0.8324320194413813 0.1 0  0.8387623808293405 0.1 0  0.8449906627004957 0.1 0  0.8511185094880469 0.1 0  0.8571475426008311 0.1 0  0.8630793533568246 0.1 0  0.8689155114558531 0.1 0  0.8746575581239063 0.1 0  0.8803070109173519 0.1 0  0.885865363938836 0.1 0  0.8913340851680313 0.1 0  0.8967146206523592 0.1 0  0.9020083930695622 0.1 0  0.9072167995950768 0.1 0  0.9123412183131177 0.1 0  0.9173830029719022 0.1 0  0.9223434865647732 0.1 0  0.9272239785872722 0.1 0  0.9320257720706087 0.1 0  0.9367501330378739 0.1 0  0.9413983102716995 0.1 0  0.9459715351562933 0.1 0  0.9504710127113115 0.1 0  0.9548979346500661 0.1 0  0.9592534708344373 0.1 0  0.9635387708980176 0.1 0  0.9677549682252325 0.1 0  0.971903177251235 0.1 0  0.9759844952956497 0.1 0  0.9840000000000086 0.1 0  0.987999999999974 0.1 0  0.9919999999999393 0.1 0  0.9959999999999913 0.1 0  1 0.09591793123533533 0  1 0.09133596463859224 0  1 0.08619288104391448 0  1 0.08041996484521211 0  1 0.07394008421771697 0  1 0.06666666567302955 0  1 0.05850252932209174 0  1 0.04933859630113544 0  1 0.03905242821848202 0  1 0.02750659386753798 0  1 0.01454683679239736 0  1.015625 0 0  1.03125 0 0  1.046875 0 0  1.0625 0 0  1.078125 0 0  1.09375 0 0  1.109375 0 0  1.125 0 0  1.140625 0 0  1.15625 0 0  1.171875 0 0  1.1875 0 0  1.203125 0 0  1.21875 0 0  1.234375 0 0  1.25 0 0  1.265625 0 0  1.28125 0 0  1.296875 0 0  1.3125 0 0  1.328125 0 0  1.34375 0 0  1.359375 0 0  1.375 0 0  1.390625 0 0  1.40625 0 0  1.421875 0 0  1.4375 0 0  1.453125 0 0  1.46875 0 0  1.484375 0 0  1.515920751924515 0 0  1.531989369316721 0 0  1.54820720925872 0 0  1.564575665560501 0 0  1.581096138674279 0 0  1.597770029901263 0 0  1.614598783332311 0 0  1.631583831055205 0 0  1.64872661129721 0 0  1.666028606716533 0 0  1.683491276608443 0 0  1.701116134125304 0 0  1.718904673324128 0 0  1.736858414799339 0 0  1.754978895814663 0 0  1.773267661782904 0 0  1.791726281103402 0 0  1.810356325314689 0 0  1.8291593848892 0 0  1.848137076690385 0 0  1.867291007717254 0 0  1.886622833871288 0 0  1.90613418642363 0 0  1.925826753299799 0 0  1.945702199101513 0 0  1.96576223584749 0 0  1.986008569283268 0 0  2.006442931928877 0 0  2.02706707547783 0 0  2.047882750887917 0 0  2.06889175187935 0 0  2.090095860038271 0 0  2.111496891648636 0 0  2.133096679109554 0 0  2.154897066851056 0 0  2.176899916687499 0 0  2.199107102752146 0 0  2.22152053937028 0 0  2.244142122958061 0 0  2.266973806444078 0 0  2.290017523268154 0 0  2.313275249499252 0 0  2.336748971745516 0 0  2.360440702338606 0 0  2.384352453384031 0 0  2.408486280477412 0 0  2.432844240041185 0 0  2.457428414757088 0 0  2.482240901796653 0 0  2.507283830121838 0 0  2.532559332080812 0 0  2.558069568787417 0 0  2.583816724966441 0 0  2.60980299606584 0 0  2.636030600971886 0 0  2.662501790984011 0 0  2.689218818279327 0 0  2.716183964547616 0 0  2.743399548861297 0 0  2.77086788244719 0 0  2.798591312896326 0 0  2.826572223178268 0 0  2.854812990138617 0 0  2.883316031690714 0 0  2.912083780657189 0 0  2.941118704633482 0 0  2.970423276998917 0 0  3 0.02999999999994495 0  3 0.05999999999987042 0  3 0.089999999999783 0  3 0.119999999999701 0  3 0.149999999999619 0  3 0.179999999999692 0  3 0.2099999999997737 0  3 0.2399999999998511 0  3 0.2699999999999185 0  2.970138294777171 0.3 0  2.940375666438236 0.3 0  2.910711782853056 0.3 0  2.881146331305122 0.3 0  2.851678975030285 0.3 0  2.822309388626621 0.3 0  2.793037250095074 0.3 0  2.76386223529133 0.3 0  2.734784017903872 0.3 0  2.705802289276642 0.3 0  2.676916713794697 0.3 0  2.648126987654635 0.3 0  2.619432780406184 0.3 0  2.590833779385199 0.3 0  2.562329669847737 0.3 0  2.533920134950189 0.3 0  2.505604855727852 0.3 0  2.477383539822502 0.3 0  2.449255847639465 0.3 0  2.421221492569094 0.3 0  2.393280152486815 0.3 0  2.36543151914496 0.3 0  2.337675285481809 0.3 0  2.310011142385583 0.3 0  2.282438797441587 0.3 0  2.254957931061538 0.3 0  2.227568248063605 0.3 0  2.200269436651085 0.3 0  2.173061204949961 0.3 0  2.145943251515011 0.3 0  2.118915272469994 0.3 0  2.091976978084957 0.3 0  2.065128060700849 0.3 0  2.038368218849433 0.3 0  2.01169717777258 0.3 0  1.985114624111908 0.3 0  1.958620267850966 0.3 0  1.93221382054972 0.3 0  1.905894991850698 0.3 0  1.879663489459713 0.3 0  1.853519019126419 0.3 0  1.827461291053897 0.3 0  1.801490031354372 0.3 0  1.775604937580312 0.3 0  1.74980572560258 0.3 0  1.724092118631866 0.3 0  1.698463829173586 0.3 0  1.672920575782554 0.3 0  1.647462076974085 0.3 0  1.622088043536933 0.3 0  1.5967981978949 0.3 0  1.571592267767068 0.3 0  1.546469970305736 0.3 0  1.521431023814044 0.3 0  1.496475156230927 0.3 0  1.471602093687753 0.3 0  1.446811560490646 0.3 0  1.422103279101731 0.3 0  1.397476971708191 0.3 0  1.37293238939876 0.3 0  1.348469231419202 0.3 0  1.324087248732772 0.3 0  1.299786165921677 0.3 0  1.275565710847046 0.3 0  1.251425617644257 0.3 0  1.227365618676339 0.3 0  1.203385446174014 0.3 0  1.179484853067473 0.3 0  1.155663548773374 0.3 0  1.131921292279077 0.3 0  1.108257802159295 0.3 0  1.084672829009693 0.3 0  1.061166115303374 0.3 0  1.037737392995421 0.3 0  1.01438640299116 0.3 0  0.991112899770314 0.3 0  0.9679166155523955 0.3 0  0.944797284182564 0.3 0  0.921754678526042 0.3 0  0.8987885143602501 0.3 0  0.8758985548820624 0.3 0  0.8530845484099929 0.3 0  0.8303462351786988 0.3 0  0.8076833651172373 0.3 0  0.7850956864865304 0.3 0  0.7625829601354557 0.3 0  0.7401449314598274 0.3 0  0.717781337993959 0.3 0  0.6954919649675473 0.3 0  0.6732765357561226 0.3 0  0.6511348120768439 0.3 0  0.6290665642016573 0.3 0  0.6070715355430467 0.3 0  0.5851494825775325 0.3 0  0.5633001690203812 0.3 0  0.5415233562273221 0.3 0  0.5198187909431873 0.3 0  0.4981862401387795 0.3 0  0.4766254686134248 0.3 0  0.4551362360485234 0.3 0  0.4337182975262159 0.3 0  0.4123714223228037 0.3 0  0.3910953802377493 0.3 0  0.3698899313205595 0.3 0  0.3487548463710963 0.3 0  0.3276898864081783 0.3 0  0.3066948129116018 0.3 0  0.2857694003037476 0.3 0  0.2649134227095047 0.3 0  0.2441266417321288 0.3 0  0.2234088223399122 0.3 0  0.2027597568977288 0.3 0  0.1821792020676698 0.3 0  0.1616669305402443 0.3 0  0.1412227158799362 0.3 0  0.12084633013886 0.3 0  0.1005375673448281 0.3 0  0.08029618164595353 0.3 0  0.06012194778526769 0.3 0  0.04001466495039718 0.3 0  0.01997408913631205 0.3 0  0 0.2800000000000553 0  0 0.2600000000001105 0  0 0.2400000000001658 0  0 0.2200000000002211 0  0 0.2000000000002764 0  0 0.1800000000002244 0  0 0.1600000000001691 0  0 0.140000000000115 0  0 0.1200000000000564 0  1.13346801534201 0.01255848438672509 0  1.003577645172735 0.09351054173913405 0  0.9777559943702486 0.1034978156913738 0  0.9524533750752109 0.1040889939962738 0  0.9296242411226409 0.1041520033606139 0  0.9046110503652111 0.104409422380137 0  0.8777709649694228 0.1053360318797398 0  0.8483859145648608 0.1061007868330701 0  0.8162363822948977 0.1052777104363292 0  0.7893110024210437 0.1060761643971561 0  0.7587949382612539 0.1067265405088633 0  0.7280603867732535 0.1069398153264939 0  0.6947001989413015 0.1075609887579097 0  0.6590363283767549 0.1076715322596598 0  0.6210028614493155 0.1072970410408442 0  1.1953125 0.01353164693413185 0  1.258193991486058 0.01269648635163345 0  1.3201967268638 0.01407907077719561 0  1.383538555392096 0.01434101079053473 0  1.445312500000001 0.01303671693628424 0  1.508925448095738 0.01398525724792267 0  0.9939176689634008 0.1034638089837981 0  1.120967497222226 0.2796788492172345 0  1.572835902117391 0.01424132418857359 0  1.637573277451887 0.01212536916586023 0  1.709730776795181 0.01466855431023635 0  1.005631976950563 0.07074019818158772 0  1.784944696816299 0.01454708406461822 0  0.5805605730631225 0.1101465090472147 0  1.855621181165637 0.01550931272897607 0  0.5366111276616774 0.1096761308243709 0  1.935200147913231 0.01760344159641829 0  1.214922267975168 0.2799787705802257 0  1.31178773425331 0.2792
[...]
<PointData  Scalars="pressure"> 
<DataArray  type="Float64"  Name="pressure"  format="ascii">1.6087283895748558e-01  -1.6473230382239787e-01  -2.1789380314512627e-01  -1.6220441799618268e-01  -4.0607065146140979e-02  0.0000000000000000e+00  0.0000000000000000e+00  1.6087977401196007e-01  1.5494671665975462e-01  1.4911608641015997e-01  1.4337938262099495e-01  1.3773508103622062e-01  1.3218166907233661e-01  1.2671766828707290e-01  1.2134164362244784e-01  1.1605212695725027e-01  1.1084772263177424e-01  1.0572704283961097e-01  1.0068868540851227e-01  9.5731301484049444e-02  9.0853576993363980e-02  8.6054153209117787e-02  8.1331734046794224e-02  7.6685102786792345e-02  7.2112872943005099e-02  6.7613851138544942e-02  6.3186798597002394e-02  5.8830422742250546e-02  5.4543561245248603e-02  5.0325082886187936e-02  4.6173653247631584e-02  4.2088190508278209e-02  3.8067419730972572e-02  3.4110247402520964e-02  3.0215625861115085e-02  2.6382302816923563e-02  2.2609107973844300e-02  1.8894997534655383e-02  1.5238850528319565e-02  1.1639487956924596e-02  8.0959217637982216e-03  4.6069346293983061e-03  1.1715113833676112e-03  -2.2115058835130066e-03  -5.5431764092873110e-03  -8.8242022631630779e-03  -1.2056339182480034e-02  -1.5240213062935541e-02  -1.8376935748751183e-02  -2.1467747495562212e-02  -2.4513657295625966e-02  -2.7515146900794690e-02  -3.0474181462365080e-02  -3.3391270540010079e-02  -3.6267519680820828e-02  -3.9104045264534211e-02  -4.1901822340194364e-02  -4.4661886924765214e-02  -4.7385400521766485e-02  -5.0073282505834260e-02  -5.2726489782681157e-02  -5.5345966278948944e-02  -5.7933241143233442e-02  -6.0488716363057686e-02  -6.3013631985891008e-02  -6.5508640656612591e-02  -6.7975718246418557e-02  -7.0415266427224718e-02  -7.2827575642371051e-02  -7.5214327032643552e-02  -7.7577042119172906e-02  -7.9915465293035323e-02  -8.2231601501496665e-02  -8.4526140361806945e-02  -8.6799402356909680e-02  -8.9052915706068797e-02  -9.1287556352916230e-02  -9.3504229704326342e-02  -9.5704592346649339e-02  -9.7888785330579944e-02  -1.0005722822215912e-01  -1.0221063329284581e-01  -1.0435221075213200e-01  -1.0648114077136150e-01  -1.0859808855527950e-01  -1.1070481823978612e-01  -1.1280171207771565e-01  -1.1488965989344442e-01  -1.1696970506089677e-01  -1.1904356664795253e-01  -1.2111166967887618e-01  -1.2317419177691123e-01  -1.2523327332478065e-01  -1.2728967494891402e-01  -1.2934434743698181e-01  -1.3139843262844214e-01  -1.3345290063689783e-01  -1.3550906008062141e-01  -1.3756820940676645e-01  -1.3963174006947565e-01  -1.4170086449442593e-01  -1.4377679461312717e-01  -1.4585804059936031e-01  -1.4792681382346071e-01  -1.5029000764838274e-01  -1.5101794156873272e-01  -1.5403915284024999e-01  -1.4930311257111403e-01  -1.5463762812342716e-01  -1.5307028860385702e-01  -2.0450170569193227e-01  -1.8271566732661410e-01  -1.7608053240970664e-01  -1.7126522333705793e-01  -1.6802019014411249e-01  -1.6558698800464033e-01  -1.6376592239968227e-01  -1.6243343644467556e-01  -1.6163509036938303e-01  -1.6144227488492122e-01  -1.6185159548105121e-01  -1.6264608819701484e-01  -1.6302392819255390e-01  -1.6282167793063765e-01  -1.6215488300179487e-01  -1.6111432213426369e-01  -1.5974357353085564e-01  -1.5802731572847104e-01  -1.5595248507586246e-01  -1.5354769700017296e-01  -1.5082976651271074e-01  -1.4780209787766255e-01  -1.4447780003038549e-01  -1.4086725320321289e-01  -1.3698185732925361e-01  -1.3284139194549621e-01  -1.2845812137066573e-01  -1.2384381238731647e-01  -1.1901632326251857e-01  -1.1399412902354011e-01  -1.0878703276868631e-01  -1.0342552346487208e-01  -9.7927229480204450e-02  -9.2308117519498009e-02  -8.6599387672106759e-02  -8.0819695829121740e-02  -7.4999006783371958e-02  -6.9160243402991414e-02  -6.3326829126298181e-02  -5.7531502238950344e-02  -5.1795953354056505e-02  -4.6147287506882705e-02  -3.5099162121366073e-02  -2.9711110786040100e-02  -2.4452884408172899e-02  -1.9360419274679953e-02  -1.4462055705373806e-02  -9.7597722749765466e-03  -5.2824501986476532e-03  -1.0358744793972480e-03  2.9298494007566340e-03  6.6396663687342938e-03  1.0092374098605328e-02  1.3266636364467838e-02  1.6164988820876348e-02  1.8794833675404323e-02  2.1160624285040654e-02  2.3268093261347648e-02  2.5133575075606485e-02  2.6758191367837868e-02  2.8157424516384314e-02  2.9363082776474050e-02  3.0364175501747342e-02  3.1192251144114044e-02  3.1861799364672573e-02  3.2381589172239766e-02  3.2774034185383417e-02  3.3044017612090915e-02  3.3223839325048604e-02  3.3303999622689991e-02  3.3306208674307759e-02  3.3235765907112622e-02  3.3100456435115805e-02  3.2909986084324730e-02  3.2673694095455369e-02  3.2395704953099659e-02  3.2076557519662284e-02  3.1723349902630940e-02  3.1336478477110422e-02  3.0918488095948434e-02  3.0470080060253590e-02  2.9991317239176855e-02  2.9482263836833899e-02  2.8942467406220199e-02  2.8370292944120305e-02  2.7765859419315111e-02  2.7126180773729889e-02  2.6449821237661077e-02  2.5737872170006178e-02  2.4985364419068755e-02  2.4190184207280398e-02  2.3357474332718127e-02  2.2477307236580073e-02  2.1557740339076210e-02  2.0588383956387239e-02  1.9578697525123871e-02  1.8521530185692379e-02  1.7413607625114378e-02  1.6265085816141278e-02  1.5062859582977019e-02  1.3816578522947463e-02  1.2519868954017393e-02  1.1169887908081350e-02  9.7655615026292809e-03  8.3044015929020706e-03  6.7878311754227139e-03  5.2005800103152606e-03  3.5581733752978999e-03  1.8401612867915127e-03  0.0000000000000000e+00  0.0000000000000000e+00  0.0000000000000000e+00  0.0000000000000000e+00  0.0000000000000000e+00  0.0000000000000000e+00  0.0000000000000000e+00  0.0000000000000000e+00  0.0000000000000000e+00  1.8942100681459465e-03  3.6935441450106905e-03  5.4841799518350132e-03  7.2364818144357631e-03  8.9504453398068003e-03  1.0620062774466754e-02  1.2240731847310164e-02  1.3807525950487698e-02  1.5315001490912181e-02  1.6759292745161417e-02  1.8135358405919198e-02  1.9440412142836771e-02  2.0669453625772157e-02  2.1820024657571237e-02  2.2888008524150631e-02  2.3867368245284237e-02  2.4758527609135196e-02  2.5551041499609094e-02  2.6240686054067954e-02  2.6821484768381237e-02  2.7286645642961370e-02  2.7629431241500919e-02  2.7844011607200077e-02  2.7918967530217505e-02  2.7852675055325980e-02  2.7632887356830799e-02  2.7256800499741888e-02  2.6713196539359718e-02  2.5996779884962299e-02  2.5104813352896958e-02  2.4026898649448816e-02  2.2757702827463550e-02  2.1312505478852654e-02  1.9678983010891611e-02  1.7830479995134537e-02  1.5808216043356339e-02  1.3590290009000208e-02  1.1178442154991843e-02  8.5751829725053200e-03  5.7877563459180483e-03  2.8096353515951189e-03  -3.4622796648010282e-04  -3.6874827545270443e-03  -7.2031805274237002e-03  -1.0904387577697383e-02  -1.4775901294009831e-02  -1.8818455666875580e-02  -2.3023612025657985e-02  -2.7394873688014309e-02  -3.1918681957715918e-02  -3.6592604047700206e-02  -4.1405464817661018e-02  -4.6344399070171870e-02  -5.1400793142529849e-02  -5.6558987566535469e-02  -6.1795671488793759e-02  -6.7052290804720416e-02  -7.2372780563902131e-02  -7.7673737879213542e-02  -8.2894463918637681e-02  -8.8037569678896851e-02  -9.3031131385151039e-02  -9.7853519600843472e-02  -1.0239803799860447e-01  -1.0665665613757029e-01  -1.1051760565922901e-01  -1.1396814013012060e-01  -1.1689555428389574e-01  -1.1930350073767007e-01  -1.2105883148302470e-01  -1.2217695716467991e-01  -1.2258847078648560e-01  -1.2216893845314597e-01  -1.2109143984209791e-01  -1.1923131139694101e-01  -1.1660217960874962e-01  -1.1332661853626726e-01  -1.0943426101237741e-01  -1.0505099354191497e-01  -1.0024737996858751e-01  -9.5025936586190032e-02  -8.9518109544235683e-02  -8.3762544858561411e-02  -7.7847482231831883e-02  -7.1777649908497609e-02  -6.5579861816050092e-02  -5.9303819711262036e-02  -5.2962137368549100e-02  -4.6565324778262446e-02  -4.0135806388819383e-02  -3.3678469271505779e-02  -2.7210673736178154e-02  -2.0735236392543148e-02  -1.4254601929130351e-02  -7.7796148893840584e-03  -1.3114694851843987e-03  5.1486860572000350e-03  1.1597550049407417e-02  1.8032193336581830e-02  2.4451504875339578e-02  3.0855001246737238e-02  3.7241228512797646e-02  4.3610013601740306e-02  4.9959826801134727e-02  5.6291011228778387e-02  6.2602879014917581e-02  6.8895177565259771e-02  7.5167817998812517e-02  8.1420511546456381e-02  8.7653213027965957e-02  9.3865893479790588e-02  1.0005846421312438e-01  1.0623090361166146e-01  1.1238321547476142e-01  1.1851541385732139e-01  1.2462748170409192e-01  1.3071948938642364e-01  1.3679146035402726e-01  1.4284342527548705e-01  1.4887543884668533e-01  1.5488753775865188e-01  1.6087974725430926e-01  1.6087945913179238e-01  1.6087875523527256e-01  1.6087765011996050e-01  1.6087630767720607e-01  1.6087496384869590e-01  1.6087385642341140e-01  1.6087314783769652e-01  1.6087286075320509e-01  -1.5438485741183169e-01  -1.8734129314458642e-01  -1.5395760019709151e-01  -1.4068662992232567e-01  -1.3046488499256381e-01  -1.2014968449556002e-01  -1.0982340085781554e-01  -9.9142332638590777e-02  -8.7994284287576913e-02  -7.8988136172999643e-02  -6.9039640649867381e-02  -5.9227718957063427e-02  -4.8751295888484862e-02  -3.7693909479462752e-02  -2.6017044951624400e-02  -1.4252695750996935e-01  -1.2602278527961344e-01  -1.0624390187175191e-01  -8.3645304614809873e-02  -6.0702377714509557e-02  -3.7882121241285746e-02  -1.6607560099505070e-01  -1.2104427225460708e-01  -1.7307521552513517e-02  -6.0535199983393583e-06  1.4298174173448827e-02  -1.6750422363385215e-01  2.4131071863627160e-02  -1.3692445245052795e-02  2.9487112039163838e-02  -3.6781832882370878e-04  3.2361430922068481e-02  -1.1167167891197916e-01  -9.4798884670639169e-02  3.3184121201810884e-02  -7.4580598648654642e-02  1.3439506878093281e-02  -4.8465656613762190e-02  3.2713607231715708e-02  2.8297563587290912e-02  -1.5994284369267883e-01  3.1465978582187915e-02  -2.4979238172530942e-02  -1.2116133570742516e-01  4.3698816757654128e-02  2.9691883802236536e-02  -1.9661354625395422e-03  6.1195543017496593e-02  7.0362002415259254e-03  2.7383663507024748e-02  1.4792639184960762e-02  7.8486051867241377e-02  -1.1467654134042739e-01  2.4602787105324913e-02  2.0477655242776050e-02  -1.0254401201156407e-01  2.4567214403177075e-02  2.1050498701617133e-02  -8.6637552588880964e-02  9.8685871678303408e-02  1.1270284319252744e-01  -1.2734497092898067e-02  1.7930901476640865e-02  1.4259981131930685e-02  2.6907740746291455e-02  -6.8886525199806217e-02  2.7771577815634937e-02  -1.4687253329538855e-01  -4.3793673594658369e-02  2.6951115111543959e-02  1.3015454646831351e-01  -2.4011562130821118e-02  1.0430282744557448e-02  2.4246669083927998e-02  -4.4248658470995338e-03  2.1408964942325873e-02  2.1181319606491816e-02  5.3126032850077401e-02  1.7397706522114191e-02  7.2087784290845350e-02  9.0865546224854779e-02  1.2991825743422933e-02  1.2246578056698644e-01  1.6169413802434353e-03  1.5529632579571348e-01  -1.6263596621772911e-01  8.2037381199867067e-03  5.8646097510035525e-03  1.4026843737068828e-01  -1.7410019528278486e-01  -1.6199319467637097e-01  -1.1749166360216698e-01  -5.6040776065644199e-02  7.8791169700359910e-03  3.3715865464893108e-02  1.4060876908331002e-01  -3.9114155543348565e-02  -6.3698388108507753e-02  -8.4829236052936505e-02  -1.0385808251641354e-01  8.8748344336863308e-02  2.7637152477781091e-02  6.9575577910909944e-02  1.0310723921683100e-01  2.5807255603405806e-02  2.2909805575517882e-02  5.1874386957726774e-02  2.5986928211920002e-02  2.8618140593480258e-02  3.6338057538910347e-02  3.0641494408515657e-02  3.2167815776775945e-02  3.3082401922164439e-02  3.2999433753999954e-02  -2.7455086624284492e-02  2.0750355191509758e-02  3.1236262464360759e-02  2.7153831142310288e-02  6.3682870271373985e-03  1.9846707080676550e-02  7.9816522082278782e-03  -7.7668107230892706e-03  1.3905405438077438e-03  -7.5474622321607104e-03  -1.9475468053222977e-02  1.5563623638028998e-01  -3.1623437233119084e-02  -4.3293071611879529e-02  -5.4051387147917802e-02  -6.4373260864267062e-02  -7.4095094689602903e-02  -8.3304332203964992e-02  -1.4892942705799664e-01  -9.4646830966737761e-02  -1.0546739258428897e-01  -1.1599845771046650e-01  -1.3484554662820830e-01  -1.2641395596038174e-01  -9.5454221831652197e-02  -1.1604138885774240e-01  -7.3168870148356185e-02  -4.9289283302740815e-02  -1.3664252299437032e-01  -1.5359586062383687e-01  1.6645961562013838e-03  1.5513943291623863e-01  4.5234281285895560e-03  -1.6241765937560027e-01  1.5588821474733927e-01  1.4257776618519112e-03  1.5178375628473909e-01  -1.6238785748773543e-01  -1.6204952841648793e-01  -1.6159253092850850e-01  -1.6209163847956784e-01  -1.6161700298029183e-01  -1.6244568752863006e-01  -1.6179002157151856e-01  -1.6290437573119868e-01  -1.6207793765700038e-01  -1.6323087546063283e-01  -1.6228561299261876e-01  -1.6316155264267371e-01  -1.6202145615216204e-01  -1.6253173765312445e-01  -1.6125531678096119e-01  -1.6144199006048926e-01  -1.5999141496615349e-01  -1.5994398497388027e-01  -1.5832306907288007e-01  -1.5784546697554630e-01  -1.5592916008882507e-01  -1.5950899861993822e-01  -1.5650961894681656e-01  -1.5372499162914893e-01  -1.5668105118504524e-01  -1.5859626645133679e-01  -1.5406914246092021e-01  -1.5114631414513838e-01  -1.5141473023485649e-01  -1.4812262296862536e-01  -1.4827636567452368e-01  -1.4465594325373266e-01  -1.4473309545979549e-01  -1.4104147755968099e-01  -1.4078276959979388e-01  -1.3634384831874544e-01  -1.3620226544269373e-01  -1.3194743193410155e-01  -1.3137542385837517e-01  -1.2695511610541277e-01  -1.2614396037575062e-01  -1.2162988719857704e-01  -1.2059302789499390e-01  -1.1603426102604639e-01  -1.1473042904667143e-01  -1.1019887967209456e-01  -1.0859017089282570e-01  -1.0413665005399307e-01  -1.0223668556808810e-01  -9.7930639679795997e-02  -9.5681447190574032e-02  -9.1618475714295641e-02  -8.8909194151907359e-02  -1.5463334392429373e-01  -1.5631273741788390e-01  -8.5214173093030560e-02  -8.2069386578560957e-02  -7.8810662116179583e-02  -7.5661764063966561e-02  -7.2494040536816143e-02  -6.8985634815178817e-02  -6.6278486526675201e-02  -6.2432039907342092e-02  -1.4994240203695225e-01  -6.0278379974683577e-02  -5.5994626140329816e-02  -5.4192837909694661e-02  -4.9692179451839735e-02  -4.8527508728391552e-02  -4.3676837547886205e-02  -1.5153189998114999e-01  -1.5327764883170544e-01  -1.6366106159530802e-01  -4.3009182756530616e-02  -3.7863269792156623e-02  -3.7775707237256186e-02  -3.2340792016830031e-02  -3.2806565964764424e-02  -2.7141884215282758e-02  -1.5976581065549139e-01  -2.8121676964046168e-02  -2.2234722196286361e-02  -1.4022669294518542e-01  -2.3705935624063659e-02  -1.7666799323853340e-02  -1.9590297961467180e-02  -1.3430373086819816e-02  -1.5690172515128702e-02  -9.5146745764863472e-03  -1.6062222744795879e-01  -1.2675354918068041e-01  -1.2132424775280946e-02  -5.9209525211348490e-03  -1.4742854359551644e-01  -1.4840680424418998e-01  -1.4602513723208146e-01  -1.1079489525114125e-01  -8.7692432524813478e-03  -2.4836136165957211e-03  -5.7568204918463997e-03  5.9244069620844285e-04  -2.8950926463364580e-03  3.2463355043964846e-03  -3.8644737705614475e-02  4.7662212598121863e-04  -2.1514401752170870e-02  -5.8258846157218769e-02  -2.4620317709996660e-04  5.6748966756363581e-03  9.1687050479311184e-03  1.1437975800763275e-02  7.9459711856116229e-03  1.3480142372807738e-02  1.0088690072170411e-02  1.5383146209408175e-02  1.2019804575982753e-02  1.7032536716857862e-02  1.3788061732161346e-02  1.8553550174402272e-02  1.5455001445749648e-02  1.9886993211273483e-02  1.6898486848818450e-02  2.1105964930871454e-02  1.8347544296439824e-02  2.2323870328034168e-02  1.9642698029587402e-02  2.3319318691457109e-02  2.0866119202785666e-02  2.4184507230517092e-02  2.1844882818293988e-02  2.4974220332790051e-02  -7.8617175724807073e-02  -9.3619079764053412e-02  2.2851144676174672e-02  2.5641088455554930e-02  2.3807991239938740e-02  2.6278583500658596e-02  -1.4755091187697467e-01  -1.1259686327641576e-01  2.4662128487903921e-02  2.6805004709061612e-02  -1.2985589526393690e-01  -7.6111619269858474e-02  -1.4240852335761478e-01  -1.4292167677151735e-01  -1.4961952372814932e-01  -1.4299421829571132e-01  -1.4846780500867232e-01  -1.4229977313892467e-01  -1.4793001549056964e-01  -1.4102893637449360e-01  -1.4481734799618831e-01  -1.3877955802484715e-01  -1.4261523369721316e-01  -1.3618648338548911e-01  -1.3848577974268694e-01  -1.3300975926669695e-01  -1.3464750860796851e-01  -1.2971071293275294e-01  -1.3076748861263190e-01  -1.2620133257929064e-01  -1.2688129005434062e-01  -1.2264974744613708e-01  -1.2299278703134500e-01  -1.1902752908603505e-01  -1.1913927993832527e-01  -1.1539588902964569e-01  -1.1530801389423495e-01  -1.1179808443209924e-01  -1.1117976755465714e-01  -1.0793268590095209e-01  -1.0820444764666259e-01  -1.0458832825425517e-01  -1.0425359853942004e-01  -1.0097733628771637e-01  -1.0066409884807317e-01  -9.7412041686483222e-02  -9.6853684790690120e-02  -9.3790654455833400e-02  -1.2789197508210084e-01  -1.0440720901782605e-01  -1.1824939950209813e-01  -9.3175504362384753e-02  -9.0091777969434336e-02  -9.0478715074395311e-02  -8.6944261954055690e-02  -8.6352859864387871e-02  -8.3328275884291689e-02  -8.2569926485651604e-02  -7.9660222518985468e-02  -7.8802928678337394e-02  -7.5938189527648706e-02  -8.3186125488624474e-02  -1.5345648052842362e-01  -1.4373837364105926e-01  -7.5097060841954513e-02  -7.2158508179765948e-02  -7.2962168312086711e-02  -6.9184267743101144e-02  -6.8354870599046311e-02  -6.5424339209167529e-02  -6.4495380627960924e-02  -6.1640892815316518e-02  -1.3526283925367549e-01  -6.5992828944494292e-02  -6.0659420900301450e-02  -5.7871856307095029e-02  -1.2686216868130856e-01  -5.6937499632050775e-02  -5.4048331342189067e-02  -5.5258039785540329e-02  -5.1111115070180693e-02  -5.0115639841097952e-02  -4.7063721468862944e-02  -4.8020352166105076e-02  -4.3972049144667125e-02  -4.3034441622470325e-02  -3.9933376819575442e-02  -3.8990256561873375e-02  -3.5802205654478794e-02  -3.6771623612826071e-02  -3.2641790868532437e-02  -3.1645709399919363e-02  -2.8508507554240343e-02  -2.7553872972951348e-02  -2.4393983308542953e-02  -1.3731376287576669e-01  -1.0386274595428933e-01  -1.1868948962164577e-01  -2.3535370898063804e-02  -2.0312200464948388e-02  -2.1183760286720605e-02  -1.6947429355812681e-02  -1.6082998526506222e-02  -1.2717612835555824e-02  -1.7817940986181512e-02  2.5343382710849825e-02  2.7245970835452358e-02  2.5965995107737415e-02  2.7620044716562320e-02  2.6523143550925998e-02  2.7923455590136613e-02  -8.5629071372427576e-02  -4.8092645296991345e-02  -1.6347114663743098e-01  -1.1822978457688850e-02  -8.5238561613980458e-03  -9.6130683850670570e-02  2.3062793004948085e-02  2.7100625861709436e-02  1.4380919365493849e-02  2.6988562062995151e-02  2.8146143014058961e-02  2.9165604746238315e-02  2.9159347600192974e-02  2.8294483084506460e-02  2.9101201358421425e-02  2.8374601630831147e-02  2.8984357945259651e-02  2.8372200280258948e-02  2.8801665416819829e-02  2.8296407827871340e-02  2.8560631929893044e-02  2.8136800818497426e-02  2.8248755651477823e-02  2.7901348279793899e-02  2.7876924496622518e-02  2.7591985094953062e-02  2.7443557281402100e-02  2.7211583179267005e-02  2.6950239674483657e-02  2.6749436448225403e-02  2.6382282189943488e-02  2.6207453319954728e-02  2.5763108433059050e-02  2.5588705861146099e-02  2.5056528081714220e-02  2.4908109797640087e-02  2.4310120908440317e-02  2.4126954493420120e-02  2.3475614451917530e-02  2.3307312836078259e-02  2.2597314899191541e-02  2.8827936844607369e-02  -3.3678513535382940e-02  -6.7462122454345907e-02  -7.5082253316362518e-03  -4.2211616856440617e-03  -5.2280546414979878e-03  -7.7331021842906155e-04  -1.8246683667834764e-03  2.7340867238002950e-03  3.6643418342927063e-03  7.1919177478663191e-03  8.2411400347409160e-03  1.1741607745947354e-02  1.0789840209998680e-02  1.5327973171885327e-02  1.6137013940290580e-02  1.9830571453772941e-02  2.0625041075536050e-0