<?xml version="1.0"?>
<VTKFile type="UnstructuredGrid"  version="0.1"  >
<UnstructuredGrid>
<Piece  NumberOfPoints="2886" NumberOfCells="5412">
<Points>
<DataArray  type="Float64"  NumberOfComponents="3"  format="ascii">0 0.1 0  0.98 0.1 0  1 0.1 0  1 0 0  1.5 0 0  3 0 0  3 0.3 0  0 0.3 0  0.01975375321854102 0.1 0  0.03918897458218897 0.1 0  0.05831079002627837 0.1 0  0.07712425666319796 0.1 0  0.0956343475259058 0.1 0  0.1138459546796227 0.1 0  0.1317638870668193 0.1 0  0.1493928840275937 0.1 0  0.1667376092280033 0.1 0  0.1838026357802664 0.1 0  0.2005924801287244 0.1 0  0.2171115811543574 0.1 0  0.2333643037107681 0.1 0  0.2493549444060462 0.1 0  0.2650877293306821 0.1 0  0.2805668058011438 0.1 0  0.2957962848620976 0.1 0  0.3107801766802674 0.1 0  0.3255224447361181 0.1 0  0.3400269848175519 0.1 0  0.3542976327080778 0.1 0  0.3683381609158136 0.1 0  0.3821522744564845 0.1 0  0.3957436316838916 0.1 0  0.4091158196437086 0.1 0  0.4222723742184605 0.1 0  0.4352167733293057 0.1 0  0.4479524348643424 0.1 0  0.4604827295467524 0.1 0  0.4728109659990664 0.1 0  0.4849404035409129 0.1 0  0.4968742471455402 0.1 0  0.508615651843175 0.1 0  0.520167721130924 0.1 0  0.5315335063628542 0.1 0  0.5427160117228604 0.1 0  0.5537181940261912 0.1 0  0.564542961924507 0.1 0  0.575193173270606 0.1 0  0.5856716438765114 0.1 0  0.5959811458006617 0.1 0  0.6061243988680743 0.1 0  0.6161040893285659 0.1 0  0.6259228503970299 0.1 0  0.6355832809287655 0.1 0  0.6450879281079505 0.1 0  0.6544393102991295 0.1 0  0.663639896558931 0.1 0  0.6726921201956305 0.1 0  0.6815983691630338 0.1 0  0.6903610031396646 0.1 0  0.6989823343332418 0.1 0  0.7074646404270378 0.1 0  0.7158101645005117 0.1 0  0.7240211149852543 0.1 0  0.7320996585612525 0.1 0  0.7400479319727645 0.1 0  0.7478680336617921 0.1 0  0.755562036504958 0.1 0  0.7631319665092091 0.1 0  0.7705798279317605 0.1 0  0.777907588066146 0.1 0  0.7851171851013118 0.1 0  0.7922105226004981 0.1 0  0.7991894774550319 0.1 0  0.8060558928136696 0.1 0  0.812811583201334 0.1 0  0.8194583352091183 0.1 0  0.8259979035038147 0.1 0  0.8324320194413813 0.1 0  0.8387623808293405 0.1 0  0.8449906627004957 0.1 0  0.8511185094880469 0.1 0  0.8571475426008311 0.1 0  0.8630793533568246 0.1 0  0.8689155114558531 0.1 0  0.8746575581239063 0.1 0  0.8803070109173519 0.1 0  0.885865363938836 0.1 0  0.8913340851680313 0.1 0  0.8967146206523592 0.1 0  0.9020083930695622 0.1 0  0.9072167995950768 0.1 0  0.9123412183131177 0.1 0  0.9173830029719022 0.1 0  0.9223434865647732 0.1 0  0.9272239785872722 0.1 0  0.9320257720706087 0.1 0  0.9367501330378739 0.1 0  0.9413983102716995 0.1 0  0.9459715351562933 0.1 0  0.9504710127113115 0.1 0  0.9548979346500661 0.1 0  0.9592534708344373 0.1 0  0.9635387708980176 0.1 0  0.9677549682252325 0.1 0  0.971903177251235 0.1 0  0.9759844952956497 0.1 0  0.9840000000000086 0.1 0  0.987999999999974 0.1 0  0.9919999999999393 0.1 0  0.9959999999999913 0.1 0  1 0.09591793123533533 0  1 0.09133596463859224 0  1 0.08619288104391448 0  1 0.08041996484521211 0  1 0.07394008421771697 0  1 0.06666666567302955 0  1 0.05850252932209174 0  1 0.04933859630113544 0  1 0.03905242821848202 0  1 0.02750659386753798 0  1 0.01454683679239736 0  1.015625 0 0  1.03125 0 0  1.046875 0 0  1.0625 0 0  1.078125 0 0  1.09375 0 0  1.109375 0 0  1.125 0 0  1.140625 0 0  1.15625 0 0  1.171875 0 0  1.1875 0 0  1.203125 0 0  1.21875 0 0  1.234375 0 0  1.25 0 0  1.265625 0 0  1.28125 0 0  1.296875 0 0  1.3125 0 0  1.328125 0 0  1.34375 0 0  1.359375 0 0  1.375 0 0  1.390625 0 0  1.40625 0 0  1.421875 0 0  1.4375 0 0  1.453125 0 0  1.46875 0 0  1.484375 0 0  1.515920751924515 0 0  1.531989369316721 0 0  1.54820720925872 0 0  1.564575665560501 0 0  1.581096138674279 0 0  1.597770029901263 0 0  1.614598783332311 0 0  1.631583831055205 0 0  1.64872661129721 0 0  1.666028606716533 0 0  1.683491276608443 0 0  1.701116134125304 0 0  1.718904673324128 0 0  1.736858414799339 0 0  1.754978895814663 0 0  1.773267661782904 0 0  1.791726281103402 0 0  1.810356325314689 0 0  1.8291593848892 0 0  1.848137076690385 0 0  1.867291007717254 0 0  1.886622833871288 0 0  1.90613418642363 0 0  1.925826753299799 0 0  1.945702199101513 0 0  1.96576223584749 0 0  1.986008569283268 0 0  2.006442931928877 0 0  2.02706707547783 0 0  2.047882750887917 0 0  2.06889175187935 0 0  2.090095860038271 0 0  2.111496891648636 0 0  2.133096679109554 0 0  2.154897066851056 0 0  2.176899916687499 0 0  2.199107102752146 0 0  2.22152053937028 0 0  2.244142122958061 0 0  2.266973806444078 0 0  2.290017523268154 0 0  2.313275249499252 0 0  2.336748971745516 0 0  2.360440702338606 0 0  2.384352453384031 0 0  2.408486280477412 0 0  2.432844240041185 0 0  2.457428414757088 0 0  2.482240901796653 0 0  2.507283830121838 0 0  2.532559332080812 0 0  2.558069568787417 0 0  2.583816724966441 0 0  2.60980299606584 0 0  2.636030600971886 0 0  2.662501790984011 0 0  2.689218818279327 0 0  2.716183964547616 0 0  2.743399548861297 0 0  2.77086788244719 0 0  2.798591312896326 0 0  2.826572223178268 0 0  2.854812990138617 0 0  2.883316031690714 0 0  2.912083780657189 0 0  2.941118704633482 0 0  2.970423276998917 0 0  3 0.02999999999994495 0  3 0.05999999999987042 0  3 0.089999999999783 0  3 0.119999999999701 0  3 0.149999999999619 0  3 0.179999999999692 0  3 0.2099999999997737 0  3 0.2399999999998511 0  3 0.2699999999999185 0  2.970138294777171 0.3 0  2.940375666438236 0.3 0  2.910711782853056 0.3 0  2.881146331305122 0.3 0  2.851678975030285 0.3 0  2.822309388626621 0.3 0  2.793037250095074 0.3 0  2.76386223529133 0.3 0  2.734784017903872 0.3 0  2.705802289276642 0.3 0  2.676916713794697 0.3 0  2.648126987654635 0.3 0  2.619432780406184 0.3 0  2.590833779385199 0.3 0  2.562329669847737 0.3 0  2.533920134950189 0.3 0  2.505604855727852 0.3 0  2.477383539822502 0.3 0  2.449255847639465 0.3 0  2.421221492569094 0.3 0  2.393280152486815 0.3 0  2.36543151914496 0.3 0  2.337675285481809 0.3 0  2.310011142385583 0.3 0  2.282438797441587 0.3 0  2.254957931061538 0.3 0  2.227568248063605 0.3 0  2.200269436651085 0.3 0  2.173061204949961 0.3 0  2.145943251515011 0.3 0  2.118915272469994 0.3 0  2.091976978084957 0.3 0  2.065128060700849 0.3 0  2.038368218849433 0.3 0  2.01169717777258 0.3 0  1.985114624111908 0.3 0  1.958620267850966 0.3 0  1.93221382054972 0.3 0  1.905894991850698 0.3 0  1.879663489459713 0.3 0  1.853519019126419 0.3 0  1.827461291053897 0.3 0  1.801490031354372 0.3 0  1.775604937580312 0.3 0  1.74980572560258 0.3 0  1.724092118631866 0.3 0  1.698463829173586 0.3 0  1.672920575782554 0.3 0  1.647462076974085 0.3 0  1.622088043536933 0.3 0  1.5967981978949 0.3 0  1.571592267767068 0.3 0  1.546469970305736 0.3 0  1.521431023814044 0.3 0  1.496475156230927 0.3 0  1.471602093687753 0.3 0  1.446811560490646 0.3 0  1.422103279101731 0.3 0  1.397476971708191 0.3 0  1.37293238939876 0.3 0  1.348469231419202 0.3 0  1.324087248732772 0.3 0  1.299786165921677 0.3 0  1.275565710847046 0.3 0  1.251425617644257 0.3 0  1.227365618676339 0.3 0  1.203385446174014 0.3 0  1.179484853067473 0.3 0  1.155663548773374 0.3 0  1.131921292279077 0.3 0  1.108257802159295 0.3 0  1.084672829009693 0.3 0  1.061166115303374 0.3 0  1.037737392995421 0.3 0  1.01438640299116 0.3 0  0.991112899770314 0.3 0  0.9679166155523955 0.3 0  0.944797284182564 0.3 0  0.921754678526042 0.3 0  0.8987885143602501 0.3 0  0.8758985548820624 0.3 0  0.8530845484099929 0.3 0  0.8303462351786988 0.3 0  0.8076833651172373 0.3 0  0.7850956864865304 0.3 0  0.7625829601354557 0.3 0  0.7401449314598274 0.3 0  0.717781337993959 0.3 0  0.6954919649675473 0.3 0  0.6732765357561226 0.3 0  0.6511348120768439 0.3 0  0.6290665642016573 0.3 0  0.6070715355430467 0.3 0  0.5851494825775325 0.3 0  0.5633001690203812 0.3 0  0.5415233562273221 0.3 0  0.5198187909431873 0.3 0  0.4981862401387795 0.3 0  0.4766254686134248 0.3 0  0.4551362360485234 0.3 0  0.4337182975262159 0.3 0  0.4123714223228037 0.3 0  0.3910953802377493 0.3 0  0.3698899313205595 0.3 0  0.3487548463710963 0.3 0  0.3276898864081783 0.3 0  0.3066948129116018 0.3 0  0.2857694003037476 0.3 0  0.2649134227095047 0.3 0  0.2441266417321288 0.3 0  0.2234088223399122 0.3 0  0.2027597568977288 0.3 0  0.1821792020676698 0.3 0  0.1616669305402443 0.3 0  0.1412227158799362 0.3 0  0.12084633013886 0.3 0  0.1005375673448281 0.3 0  0.08029618164595353 0.3 0  0.06012194778526769 0.3 0  0.04001466495039718 0.3 0  0.01997408913631205 0.3 0  0 0.2800000000000553 0  0 0.2600000000001105 0  0 0.2400000000001658 0  0 0.2200000000002211 0  0 0.2000000000002764 0  0 0.1800000000002244 0  0 0.1600000000001691 0  0 0.140000000000115 0  0 0.1200000000000564 0  1.13346801534201 0.01255848438672509 0  1.003577645172735 0.09351054173913405 0  0.9777559943702486 0.1034978156913738 0  0.9524533750752109 0.1040889939962738 0  0.9296242411226409 0.1041520033606139 0  0.9046110503652111 0.104409422380137 0  0.8777709649694228 0.1053360318797398 0  0.8483859145648608 0.1061007868330701 0  0.8162363822948977 0.1052777104363292 0  0.7893110024210437 0.1060761643971561 0  0.7587949382612539 0.1067265405088633 0  0.7280603867732535 0.1069398153264939 0  0.6947001989413015 0.1075609887579097 0  0.6590363283767549 0.1076715322596598 0  0.6210028614493155 0.1072970410408442 0  1.1953125 0.01353164693413185 0  1.258193991486058 0.01269648635163345 0  1.3201967268638 0.01407907077719561 0  1.383538555392096 0.01434101079053473 0  1.445312500000001 0.01303671693628424 0  1.508925448095738 0.01398525724792267 0  0.9939176689634008 0.1034638089837981 0  1.120967497222226 0.2796788492172345 0  1.572835902117391 0.01424132418857359 0  1.637573277451887 0.01212536916586023 0  1.709730776795181 0.01466855431023635 0  1.005631976950563 0.07074019818158772 0  1.784944696816299 0.01454708406461822 0  0.5805605730631225 0.1101465090472147 0  1.855621181165637 0.01550931272897607 0  0.5366111276616774 0.1096761308243709 0  1.935200147913231 0.01760344159641829 0  1.214922267975168 0.2799787705802257 0  1.31178773425331 0.2792
[...]
<PointData  Scalars="pressure"> 
<DataArray  type="Float64"  Name="pressure"  format="ascii">1.6052193044834887e-01  -1.6542065616426471e-01  -2.1922944204980593e-01  -1.6327064450570591e-01  -4.3255898969120611e-02  0.0000000000000000e+00  0.0000000000000000e+00  1.6052849217472015e-01  1.5459580789787941e-01  1.4876518074698311e-01  1.4302848477774363e-01  1.3738419590355036e-01  1.3183080259786512e-01  1.2636682662537307e-01  1.2099083265678165e-01  1.1570135452019065e-01  1.1049699631169527e-01  1.0537637105215779e-01  1.0033807801541460e-01  9.5380769364481269e-02  9.0503131120706112e-02  8.5703807148356861e-02  8.0981502160349245e-02  7.6334998917322566e-02  7.1762916401079249e-02  6.7264060857324212e-02  6.2837195220077982e-02  5.8481031551641791e-02  5.4194406874981636e-02  4.9976191756057768e-02  4.5825058085675052e-02  4.1739924195933524e-02  3.7719522147602512e-02  3.3762756806295535e-02  2.9868584715675581e-02  2.6035757945686584e-02  2.2263112601923877e-02  1.8549606135687142e-02  1.4894122046183525e-02  1.1295488631805911e-02  7.7527170904157323e-03  4.2646010027594019e-03  8.3012844075376017e-04  -2.5518527244960390e-03  -5.8824000884894114e-03  -9.1622111981389479e-03  -1.2393020888739663e-02  -1.5575469674458902e-02  -1.8710642997687356e-02  -2.1799786976945564e-02  -2.4843904023437034e-02  -2.7843466246697424e-02  -3.0800426485212012e-02  -3.3715294733607272e-02  -3.6589165500983761e-02  -3.9423144340125470e-02  -4.2218205308524603e-02  -4.4975372598323571e-02  -4.7695793791783840e-02  -5.0380388823597563e-02  -5.3030105228996822e-02  -5.5645877329833671e-02  -5.8229214270425239e-02  -6.0780525541772101e-02  -6.3301036110079409e-02  -6.5791406653178550e-02  -6.8253544732033031e-02  -7.0687908766545904e-02  -7.3094766308995612e-02  -7.5475771766313121e-02  -7.7832426893620271e-02  -8.0164504162131084e-02  -8.2473949245812431e-02  -8.4761484374959922e-02  -8.7027410793487511e-02  -8.9273231146291016e-02  -9.1499816050535601e-02  -9.3708055076579949e-02  -9.5899593253547452e-02  -9.8074539891376766e-02  -1.0023338612964698e-01  -1.0237673655105356e-01  -1.0450779990033485e-01  -1.0662577360063234e-01  -1.0873129473488274e-01  -1.1082610487620759e-01  -1.1291056912206508e-01  -1.1498556607021025e-01  -1.1705208693989648e-01  -1.1911183446326211e-01  -1.2116521266984423e-01  -1.2321237510162696e-01  -1.2525540072767602e-01  -1.2729501253724212e-01  -1.2933212168090302e-01  -1.3136779987139605e-01  -1.3340295943764721e-01  -1.3543882646184607e-01  -1.3747659591587896e-01  -1.3951753827128352e-01  -1.4156268177247763e-01  -1.4361314302781192e-01  -1.4566654777623111e-01  -1.4770301922565915e-01  -1.5005908345100322e-01  -1.5061897747349973e-01  -1.5350380578113973e-01  -1.4806948931699249e-01  -1.5349777589633057e-01  -1.5224416596181733e-01  -2.0557969742978405e-01  -1.8374562591823612e-01  -1.7710953343540201e-01  -1.7229936226113290e-01  -1.6906055038627241e-01  -1.6663371751430994e-01  -1.6481895817568767e-01  -1.6349268238863443e-01  -1.6269940361705426e-01  -1.6250960722945937e-01  -1.6291898131272156e-01  -1.6371093980347681e-01  -1.6408860940328865e-01  -1.6388805203486775e-01  -1.6322452128424211e-01  -1.6218897991119333e-01  -1.6082550510014446e-01  -1.5911956266522720e-01  -1.5705871484460249e-01  -1.5467196070696990e-01  -1.5197653297783509e-01  -1.4897635406961832e-01  -1.4568488539419086e-01  -1.4211285053593978e-01  -1.3827193496514117e-01  -1.3418191276712241e-01  -1.2985508499968657e-01  -1.2530320587444538e-01  -1.2054387220976677e-01  -1.1559514483492303e-01  -1.1046652944797519e-01  -1.0518765449992828e-01  -9.9775269734210872e-02  -9.4244750440066430e-02  -8.8625865895813213e-02  -8.2936563668061541e-02  -7.7204891280582513e-02  -7.1453156922842889e-02  -6.5703196532310895e-02  -5.9986344383186764e-02  -5.4323139591082377e-02  -4.8739435849775192e-02  -3.7796151158064041e-02  -3.2445856569338814e-02  -2.7214455730285601e-02  -2.2136860408846774e-02  -1.7240884331615858e-02  -1.2528450416354382e-02  -8.0287374292167223e-03  -3.7474169362053914e-03  2.6605116603445621e-04  4.0345927992822828e-03  7.5560962480643798e-03  1.0808522567905387e-02  1.3793326927767115e-02  1.6516333334429211e-02  1.8980639949967359e-02  2.1190712537505572e-02  2.3161253923023959e-02  2.4892088864223394e-02  2.6397885199452367e-02  2.7708498438460565e-02  2.8812534362228470e-02  2.9740368791636398e-02  3.0505626254715337e-02  3.1116723229800261e-02  3.1595321072005592e-02  3.1946526523458092e-02  3.2201507999307939e-02  3.2351438577775421e-02  3.2417766883854081e-02  3.2405671137281739e-02  3.2323464598523005e-02  3.2181022398634129e-02  3.1987949635206250e-02  3.1748631013519359e-02  3.1464114924414269e-02  3.1141835701279787e-02  3.0782712442800533e-02  3.0389594673125363e-02  2.9963723365956648e-02  2.9505605288437601e-02  2.9015668448035086e-02  2.8493884501087301e-02  2.7939044317475768e-02  2.7351423075325947e-02  2.6728552509577952e-02  2.6069074378993615e-02  2.5374058942195361e-02  2.4638704146895285e-02  2.3860952858296227e-02  2.3045234806524147e-02  2.2181881003866880e-02  2.1278084298348925e-02  2.0323159007988558e-02  1.9326117553586319e-02  1.8279085928135756e-02  1.7178165789288335e-02  1.6034106794251209e-02  1.4832425004509665e-02  1.3584741188964753e-02  1.2284863605782513e-02  1.0931858683844116e-02  9.5256131087868932e-03  8.0685079515825757e-03  6.5637136426021179e-03  5.0019957550857252e-03  3.4011961373945437e-03  1.7447253745633033e-03  0.0000000000000000e+00  0.0000000000000000e+00  0.0000000000000000e+00  0.0000000000000000e+00  0.0000000000000000e+00  0.0000000000000000e+00  0.0000000000000000e+00  0.0000000000000000e+00  0.0000000000000000e+00  1.9186421832920210e-03  3.7049580718157525e-03  5.4611467509972107e-03  7.1628603057490893e-03  8.8138255790343630e-03  1.0412775681192024e-02  1.1958739611904747e-02  1.3449990824608349e-02  1.4883702651470225e-02  1.6257600524182920e-02  1.7567660076677514e-02  1.8811321723610344e-02  1.9983493275346952e-02  2.1081118778610929e-02  2.2099335500253749e-02  2.3031497900180362e-02  2.3877198825900846e-02  2.4625299452578121e-02  2.5271152138204012e-02  2.5808638787897745e-02  2.6230946063519285e-02  2.6531558360988357e-02  2.6704825553369990e-02  2.6740260155382299e-02  2.6636311500266539e-02  2.6381558725910647e-02  2.5974025021417043e-02  2.5402644563779695e-02  2.4662560172650363e-02  2.3751418215893848e-02  2.2658829731357494e-02  2.1379623672200053e-02  1.9928850441405521e-02  1.8292462923105594e-02  1.6444915474934870e-02  1.4426494983464379e-02  1.2213946850250817e-02  9.8082255813278871e-03  7.2108332002844841e-03  4.4293748156042203e-03  1.4546876383109474e-03  -1.6992539278590576e-03  -5.0413201997496675e-03  -8.5609830590431379e-03  -1.2269687408514342e-02  -1.6151668109953395e-02  -2.0208462812103752e-02  -2.4431017859030828e-02  -2.8822470543372416e-02  -3.3368884023784670e-02  -3.8067194730450234e-02  -4.2905587481633506e-02  -4.7869979417625171e-02  -5.2951237295756910e-02  -5.8133240033985921e-02  -6.3391125425686576e-02  -6.8663059456150741e-02  -7.3997869511302022e-02  -7.9307328204083455e-02  -8.4529104901314683e-02  -8.9667800505560377e-02  -9.4649649095978977e-02  -9.9453940450102016e-02  -1.0397279894757169e-01  -1.0819849381645157e-01  -1.1201934893375230e-01  -1.1542308482400498e-01  -1.1829667494863336e-01  -1.2064495043565290e-01  -1.2233464313612755e-01  -1.2338264263782353e-01  -1.2371960154699713e-01  -1.2322243442649722e-01  -1.2206723522586740e-01  -1.2013007481819114e-01  -1.1742698208547156e-01  -1.1408277102176680e-01  -1.1012834868724700e-01  -1.0569020380868237e-01  -1.0083832695493491e-01  -9.5576246420555594e-02  -9.0034197221282974e-02  -8.4250156851173749e-02  -7.8310878382108276e-02  -7.2221045003356757e-02  -6.6006958106400046e-02  -5.9717352487113795e-02  -5.3364382997830612e-02  -4.6958447655200040e-02  -4.0521386089764334e-02  -3.4057946480530288e-02  -2.7585061415606779e-02  -2.1105426836460425e-02  -1.4621440960896098e-02  -8.1436391468643256e-03  -1.6731564678943492e-03  4.7888796456951651e-03  1.1239276545415093e-02  1.7675188572198890e-02  2.4095558996534507e-02  3.0499912647290142e-02  3.6886850043832381e-02  4.3256201167552306e-02  4.9606498839116532e-02  5.5938070954545678e-02  6.2250260656683640e-02  6.8542824525791426e-02  7.4815681050402039e-02  8.1068553792940229e-02  8.7301403275725359e-02  9.3514203507613469e-02  9.9706871829020619e-02  1.0587939061627759e-01  1.1203176602980534e-01  1.1816401441208750e-01  1.2427612233786978e-01  1.3036815981166139e-01  1.3644015222505632e-01  1.4249213199776181e-01  1.4852415394722138e-01  1.5453625647237818e-01  1.6052846680716712e-01  1.6052819401219567e-01  1.6052752790801153e-01  1.6052648237405270e-01  1.6052521243876425e-01  1.6052394119338742e-01  1.6052289347441170e-01  1.6052222293124241e-01  1.6052195111485607e-01  -1.5550324190064435e-01  -1.8840668601915461e-01  -1.5371307859203684e-01  -1.4055546085307344e-01  -1.3043951514979960e-01  -1.2020775534663425e-01  -1.0994759534236329e-01  -9.9320780507681575e-02  -8.8217043737130546e-02  -7.9238658793539321e-02  -6.9314375943033663e-02  -5.9520926105567376e-02  -4.9059490094203968e-02  -3.8013889749301422e-02  -2.6346066744641062e-02  -1.4375486815559330e-01  -1.2745161199805857e-01  -1.0795987553897449e-01  -8.5713574615421242e-02  -6.3108821530225900e-02  -4.0547471676446331e-02  -1.6565939109559250e-01  -1.2229806507432393e-01  -2.0076497772627842e-02  -2.6957062773225811e-03  1.1882380995597294e-02  -1.6855041527872247e-01  2.2115826969068417e-02  -1.4028155393034791e-02  2.7864567464629311e-02  -7.0857966791681277e-04  3.1126048732422359e-02  -1.1315653341267266e-01  -9.6411612905633354e-02  3.2264830438325856e-02  -7.6208359324684699e-02  1.3095240423432351e-02  -4.9996557437458782e-02  3.1994643716103145e-02  2.7950841331554406e-02  -1.6102395582109943e-01  3.0891073950756971e-02  -2.6385919534370063e-02  -1.2218078323792662e-01  4.3350464172965460e-02  2.9211305309642995e-02  -3.3073287886765499e-03  6.0846061875119241e-02  5.6869074635432218e-03  2.6977484186361818e-02  1.3424827062970365e-02  7.8135914875038279e-02  -1.1547588426664333e-01  2.4265706651596251e-02  1.9101468731812656e-02  -1.0316419558019765e-01  2.3215022209613842e-02  2.0783575587146563e-02  -8.7142471361264795e-02  9.8335304445827304e-02  1.1235210658623264e-01  -1.4094234965527610e-02  1.7700701750053636e-02  1.4039269028857061e-02  2.5617394755943646e-02  -6.9323930396119490e-02  2.6618237408828609e-02  -1.4666443577933935e-01  -4.4184324226123402e-02  2.5917427410508814e-02  1.2980369237366482e-01  -2.4384273388190325e-02  1.0202527706863878e-02  2.3383269409635875e-02  -4.7878855420593657e-03  2.1052429330009507e-02  2.0460879921587270e-02  5.2772860751480584e-02  1.6851065662863828e-02  7.1735523754997532e-02  9.0513786634863910e-02  1.2657588930238214e-02  1.2211440279433802e-01  1.5981424401368546e-03  1.5494519698703349e-01  -1.6369743127225067e-01  8.0810631665313246e-03  5.6638318688845366e-03  1.3991713589210361e-01  -1.7514040419771795e-01  -1.6306298544057740e-01  -1.1887234900183889e-01  -5.6449514030691081e-02  7.5198281156157081e-03  3.3361018986272660e-02  1.4025787952369043e-01  -4.0595418421037241e-02  -6.5297521062169656e-02  -8.6462839487501303e-02  -1.0542197351877970e-01  8.8397953623132505e-02  2.6407886076727574e-02  6.9225736246824515e-02  1.0275567807583832e-01  2.4857788699782273e-02  2.2609205130218753e-02  5.1525433788155363e-02  2.5616928290225039e-02  2.8175451645568183e-02  3.5990396125044677e-02  3.0118028559396038e-02  3.1528863942778401e-02  3.2262323674213653e-02  3.1937927453897258e-02  -3.0193678970233815e-02  2.0404746795143567e-02  2.9814185746283951e-02  2.5334500508595315e-02  6.0256494034515657e-03  1.7624123198282209e-02  5.4136058941735019e-03  -1.0516062740849694e-02  1.3279866067070075e-03  -7.8857562740471312e-03  -1.9808343861273711e-02  1.5528524744562747e-01  -3.1948435112255494e-02  -4.3607532612466221e-02  -5.4352529389202264e-02  -6.4657316611189217e-02  -7.4358275650594802e-02  -8.3542249939734137e-02  -1.5009372184490308e-01  -9.4844646487805634e-02  -1.0561556286287416e-01  -1.1608495742734522e-01  -1.3616106210410664e-01  -1.2642383687566430e-01  -9.7337866685047986e-02  -1.1761083372154785e-01  -7.5397024154590153e-02  -5.1838963885421946e-02  -1.3655682287753473e-01  -1.5280487738574136e-01  1.6816592932587669e-03  1.5478818568541619e-01  4.5093587872059478e-03  -1.6348381852969129e-01  1.5553729982784764e-01  1.3512514421259061e-03  1.5143247264140319e-01  -1.6345513892880587e-01  -1.6311819493376639e-01  -1.6266384189120472e-01  -1.6315971863019965e-01  -1.6268754530789234e-01  -1.6351178258584548e-01  -1.6285906715243603e-01  -1.6396829452735731e-01  -1.6314508279545800e-01  -1.6429352868412306e-01  -1.6335160252060554e-01  -1.6422432330665937e-01  -1.6308813392076482e-01  -1.6359509446015288e-01  -1.6232346512377185e-01  -1.6250448823375019e-01  -1.6106077718202530e-01  -1.6100467384145542e-01  -1.5939485698232012e-01  -1.5890923388192016e-01  -1.5701240121354132e-01  -1.6055423865753282e-01  -1.5759638746398344e-01  -1.5483041147918700e-01  -1.5773230299694410e-01  -1.5961766555152479e-01  -1.5517523869553881e-01  -1.5227799191407798e-01  -1.5254412881180685e-01  -1.4928618232780827e-01  -1.4943528768803535e-01  -1.4585729521302546e-01  -1.4592830197935244e-01  -1.4228380108421487e-01  -1.4202099028870729e-01  -1.3764234075715664e-01  -1.3749430324611112e-01  -1.3329938611830749e-01  -1.3272710113207770e-01  -1.2836962873719038e-01  -1.2756320336704852e-01  -1.2311266415768693e-01  -1.2208649362356511e-01  -1.1758922664920853e-01  -1.1630400311482667e-01  -1.1182892970904708e-01  -1.1024854085164340e-01  -1.0584305125332341e-01  -1.0398249274593775e-01  -9.9713168941431313e-02  -9.7514051606135521e-02  -9.3474106714809532e-02  -9.0833233174095612e-02  -1.5566549577915467e-01  -1.5729926513315173e-01  -8.7136979944122797e-02  -8.4073964062839068e-02  -8.0796992490695441e-02  -7.7739167941585141e-02  -7.4530740304400128e-02  -7.1129937728762693e-02  -6.8355927087431725e-02  -6.4632025496364445e-02  -1.5108171382332486e-01  -6.2387055992151608e-02  -5.8238638393971517e-02  -5.6297344691871469e-02  -5.1963062304187610e-02  -5.0657549957533264e-02  -4.5964932545327956e-02  -1.5253781632344829e-01  -1.5421269701924548e-01  -1.6472111689329499e-01  -4.5130225754123961e-02  -4.0152608879062308e-02  -3.9876040491418942e-02  -3.4615637222579133e-02  -3.4874919772444037e-02  -2.9389151042731213e-02  -1.6074437558180427e-01  -3.0147433083723606e-02  -2.4440690444129453e-02  -1.4148155465309484e-01  -2.5680100369980842e-02  -1.9820487468269313e-02  -2.1507376755024815e-02  -1.5522585997782881e-02  -1.7548806933379669e-02  -1.1538537498034886e-02  -1.6169458736428829e-01  -1.2817291081974957e-01  -1.3926115514457748e-02  -7.8715597713493735e-03  -1.4840320107320149e-01  -1.4930280666241999e-01  -1.4706802389956125e-01  -1.1240711447115961e-01  -1.0499335819428001e-02  -4.3601841043537960e-03  -7.4197752006702443e-03  -1.2074584269166811e-03  -4.4967977796159381e-03  1.5226887579051543e-03  -4.1082955459681880e-02  -1.6259424137610966e-03  -2.3928665587532073e-02  -6.0574790510658366e-02  -1.7913231363853208e-03  4.0234892425638109e-03  7.3314544655519211e-03  9.6862394477226690e-03  6.3606990066402674e-03  1.1809412115666417e-02  8.5627256843601746e-03  1.3789848632362031e-02  1.0549190582881250e-02  1.5514035601188522e-02  1.2367287917204692e-02  1.7100957267382200e-02  1.4077562643930184e-02  1.8495089235380194e-02  1.5559190756310341e-02  1.9767449279819792e-02  1.7040874116460134e-02  2.1033367473618812e-02  1.8363997584973996e-02  2.2071741502593636e-02  1.9611641348828483e-02  2.2975204157479744e-02  2.0609208081417300e-02  2.3797999709930760e-02  -8.0700312605319555e-02  -9.5414091115055860e-02  2.1632574480989368e-02  2.4494516591159643e-02  2.2606139451205268e-02  2.5158175849950452e-02  -1.4871496233568993e-01  -1.1420003142348098e-01  2.3475726822712713e-02  2.5709432873263605e-02  -1.3122075519447013e-01  -7.8052977525608774e-02  -1.4335814888806162e-01  -1.4378144695001738e-01  -1.5040549090541408e-01  -1.4374776916666065e-01  -1.4913107244519083e-01  -1.4294255405615738e-01  -1.4844673241078396e-01  -1.4155722387181971e-01  -1.4522128100673526e-01  -1.3920941176719856e-01  -1.4291028577420306e-01  -1.3653372420758897e-01  -1.3871048012439571e-01  -1.3329712983908751e-01  -1.3482668758600722e-01  -1.2995609874157407e-01  -1.3092288050191350e-01  -1.2642199696606013e-01  -1.2702725529766642e-01  -1.2285772469357803e-01  -1.2313920411393889e-01  -1.1923121399692885e-01  -1.1929145477659442e-01  -1.1560003261727274e-01  -1.1546923159198756e-01  -1.1200568825941493e-01  -1.1135335869599516e-01  -1.0814945493300906e-01  -1.0846081889825009e-01  -1.0484518137817074e-01  -1.0447588108273852e-01  -1.0123561054006297e-01  -1.0088953448767510e-01  -9.7671918711466674e-02  -9.7086960205980483e-02  -9.4054257295338131e-02  -1.2826040507070874e-01  -1.0471142878254049e-01  -1.1851913044369405e-01  -9.3416052069445768e-02  -9.0359238811241679e-02  -9.0774081223964881e-02  -8.7239703556973566e-02  -8.6624197096245747e-02  -8.3623421109420379e-02  -8.2845418685323663e-02  -7.9956540312103419e-02  -7.9082762090184291e-02  -7.6237217351280515e-02  -8.3506738306784845e-02  -1.5402907244312641e-01  -1.4389167057803154e-01  -7.5381266927191271e-02  -7.2459697253772631e-02  -7.3280461454036869e-02  -6.9502927673990814e-02  -6.8658121011164475e-02  -6.5742749610597978e-02  -6.4801048210488751e-02  -6.1959942865379668e-02  -1.3534079334821889e-01  -6.6327455038375963e-02  -6.0967607026777546e-02  -5.8191570424404961e-02  -1.2694987129112467e-01  -5.7248172971129808e-02  -5.4369353016467732e-02  -5.5589415006581801e-02  -5.1442618931520155e-02  -5.0437880387150087e-02  -4.7395043799746094e-02  -4.8362314165279106e-02  -4.4312447211214349e-02  -4.3365765828165620e-02  -4.0272647144115659e-02  -3.9321844457185867e-02  -3.6140711421772928e-02  -3.7118433608407657e-02  -3.2986889439083622e-02  -3.1983789297237684e-02  -2.8852373202036295e-02  -2.7891915383023096e-02  -2.4737078703847733e-02  -1.3805380892097338e-01  -1.0405516820401377e-01  -1.1880856894487334e-01  -2.3873582901400067e-02  -2.0654797343708557e-02  -2.1531648331471458e-02  -1.7294231568234068e-02  -1.6425379051829999e-02  -1.3063565804679629e-02  -1.8170164983786728e-02  2.4168322647681029e-02  2.6171169990037133e-02  2.4803147892389493e-02  2.6566252048802905e-02  2.5374198125814720e-02  2.6889652263874832e-02  -8.5883085771430209e-02  -5.0040948118560358e-02  -1.6453296437306084e-01  -1.2165309365957843e-02  -8.8693039559234882e-03  -9.6345704084343925e-02  2.1595131211331602e-02  2.5948826836426346e-02  1.2458278126581077e-02  2.5854600074702434e-02  2.7132308529320935e-02  2.8258609280551131e-02  2.8275506692135150e-02  2.7300502687333975e-02  2.8240648730916636e-02  2.7402397593988076e-02  2.8147254801649424e-02  2.7421562084799130e-02  2.7986055832287547e-02  2.7368973196329353e-02  2.7767579787341502e-02  2.7232265036226722e-02  2.7477430802207815e-02  2.7019055568459013e-02  2.7128214139632616e-02  2.6733583528483540e-02  2.6717629012560758e-02  2.6378771674087653e-02  2.6248376466448765e-02  2.5944415472988140e-02  2.5704657363376873e-02  2.5427788956914346e-02  2.5109853722404735e-02  2.4833514114309757e-02  2.4427854225592162e-02  2.4179299737426125e-02  2.3705869708838204e-02  2.3431078296009166e-02  2.2898091930648366e-02  2.2625904726129614e-02  2.2042543238366671e-02  2.7840021789273632e-02  -3.4032000479174720e-02  -6.7753267082804922e-02  -7.8506765799844502e-03  -4.5663269200958354e-03  -5.5764895777609402e-03  -1.1210847823591213e-03  -2.1758260985604528e-03  2.3839318945995335e-03  3.3170495414476483e-03  6.8425125699875912e-03  7.8941383402050778e-03  1.1392760875467393e-02  1.0438592072476757e-02  1.4977471729210540e-02  1.5788532065315854e-02  1.9480634764151909e-02  2.0276752238168712e