<?xml version="1.0"?>
<VTKFile type="UnstructuredGrid"  version="0.1"  >
<UnstructuredGrid>
<Piece  NumberOfPoints="2886" NumberOfCells="5412">
<Points>
<DataArray  type="Float64"  NumberOfComponents="3"  format="ascii">0 0.1 0  0.98 0.1 0  1 0.1 0  1 0 0  1.5 0 0  3 0 0  3 0.3 0  0 0.3 0  0.01975375321854102 0.1 0  0.03918897458218897 0.1 0  0.05831079002627837 0.1 0  0.07712425666319796 0.1 0  0.0956343475259058 0.1 0  0.1138459546796227 0.1 0  0.1317638870668193 0.1 0  0.1493928840275937 0.1 0  0.1667376092280033 0.1 0  0.1838026357802664 0.1 0  0.2005924801287244 0.1 0  0.2171115811543574 0.1 0  0.2333643037107681 0.1 0  0.2493549444060462 0.1 0  0.2650877293306821 0.1 0  0.2805668058011438 0.1 0  0.2957962848620976 0.1 0  0.3107801766802674 0.1 0  0.3255224447361181 0.1 0  0.3400269848175519 0.1 0  0.3542976327080778 0.1 0  0.3683381609158136 0.1 0  0.3821522744564845 0.1 0  0.3957436316838916 0.1 0  0.4091158196437086 0.1 0  0.4222723742184605 0.1 0  0.4352167733293057 0.1 0  0.4479524348643424 0.1 0  0.4604827295467524 0.1 0  0.4728109659990664 0.1 0  0.4849404035409129 0.1 0  0.4968742471455402 0.1 0  0.508615651843175 0.1 0  0.520167721130924 0.1 0  0.5315335063628542 0.1 0  0.5427160117228604 0.1 0  0.5537181940261912 0.1 0  0.564542961924507 0.1 0  0.575193173270606 0.1 0  0.5856716438765114 0.1 0  0.5959811458006617 0.1 0  0.6061243988680743 0.1 0  0.6161040893285659 0.1 0  0.6259228503970299 0.1 0  0.6355832809287655 0.1 0  0.6450879281079505 0.1 0  0.6544393102991295 0.1 0  0.663639896558931 0.1 0  0.6726921201956305 0.1 0  0.6815983691630338 0.1 0  0.6903610031396646 0.1 0  0.6989823343332418 0.1 0  0.7074646404270378 0.1 0  0.7158101645005117 0.1 0  0.7240211149852543 0.1 0  0.7320996585612525 0.1 0  0.7400479319727645 0.1 0  0.7478680336617921 0.1 0  0.755562036504958 0.1 0  0.7631319665092091 0.1 0  0.7705798279317605 0.1 0  0.777907588066146 0.1 0  0.7851171851013118 0.1 0  0.7922105226004981 0.1 0  0.7991894774550319 0.1 0  0.8060558928136696 0.1 0  0.812811583201334 0.1 0  0.8194583352091183 0.1 0  0.8259979035038147 0.1 0  0.8324320194413813 0.1 0  0.8387623808293405 0.1 0  0.8449906627004957 0.1 0  0.8511185094880469 0.1 0  0.8571475426008311 0.1 0  0.8630793533568246 0.1 0  0.8689155114558531 0.1 0  0.8746575581239063 0.1 0  0.8803070109173519 0.1 0  0.885865363938836 0.1 0  0.8913340851680313 0.1 0  0.8967146206523592 0.1 0  0.9020083930695622 0.1 0  0.9072167995950768 0.1 0  0.9123412183131177 0.1 0  0.9173830029719022 0.1 0  0.9223434865647732 0.1 0  0.9272239785872722 0.1 0  0.9320257720706087 0.1 0  0.9367501330378739 0.1 0  0.9413983102716995 0.1 0  0.9459715351562933 0.1 0  0.9504710127113115 0.1 0  0.9548979346500661 0.1 0  0.9592534708344373 0.1 0  0.9635387708980176 0.1 0  0.9677549682252325 0.1 0  0.971903177251235 0.1 0  0.9759844952956497 0.1 0  0.9840000000000086 0.1 0  0.987999999999974 0.1 0  0.9919999999999393 0.1 0  0.9959999999999913 0.1 0  1 0.09591793123533533 0  1 0.09133596463859224 0  1 0.08619288104391448 0  1 0.08041996484521211 0  1 0.07394008421771697 0  1 0.06666666567302955 0  1 0.05850252932209174 0  1 0.04933859630113544 0  1 0.03905242821848202 0  1 0.02750659386753798 0  1 0.01454683679239736 0  1.015625 0 0  1.03125 0 0  1.046875 0 0  1.0625 0 0  1.078125 0 0  1.09375 0 0  1.109375 0 0  1.125 0 0  1.140625 0 0  1.15625 0 0  1.171875 0 0  1.1875 0 0  1.203125 0 0  1.21875 0 0  1.234375 0 0  1.25 0 0  1.265625 0 0  1.28125 0 0  1.296875 0 0  1.3125 0 0  1.328125 0 0  1.34375 0 0  1.359375 0 0  1.375 0 0  1.390625 0 0  1.40625 0 0  1.421875 0 0  1.4375 0 0  1.453125 0 0  1.46875 0 0  1.484375 0 0  1.515920751924515 0 0  1.531989369316721 0 0  1.54820720925872 0 0  1.564575665560501 0 0  1.581096138674279 0 0  1.597770029901263 0 0  1.614598783332311 0 0  1.631583831055205 0 0  1.64872661129721 0 0  1.666028606716533 0 0  1.683491276608443 0 0  1.701116134125304 0 0  1.718904673324128 0 0  1.736858414799339 0 0  1.754978895814663 0 0  1.773267661782904 0 0  1.791726281103402 0 0  1.810356325314689 0 0  1.8291593848892 0 0  1.848137076690385 0 0  1.867291007717254 0 0  1.886622833871288 0 0  1.90613418642363 0 0  1.925826753299799 0 0  1.945702199101513 0 0  1.96576223584749 0 0  1.986008569283268 0 0  2.006442931928877 0 0  2.02706707547783 0 0  2.047882750887917 0 0  2.06889175187935 0 0  2.090095860038271 0 0  2.111496891648636 0 0  2.133096679109554 0 0  2.154897066851056 0 0  2.176899916687499 0 0  2.199107102752146 0 0  2.22152053937028 0 0  2.244142122958061 0 0  2.266973806444078 0 0  2.290017523268154 0 0  2.313275249499252 0 0  2.336748971745516 0 0  2.360440702338606 0 0  2.384352453384031 0 0  2.408486280477412 0 0  2.432844240041185 0 0  2.457428414757088 0 0  2.482240901796653 0 0  2.507283830121838 0 0  2.532559332080812 0 0  2.558069568787417 0 0  2.583816724966441 0 0  2.60980299606584 0 0  2.636030600971886 0 0  2.662501790984011 0 0  2.689218818279327 0 0  2.716183964547616 0 0  2.743399548861297 0 0  2.77086788244719 0 0  2.798591312896326 0 0  2.826572223178268 0 0  2.854812990138617 0 0  2.883316031690714 0 0  2.912083780657189 0 0  2.941118704633482 0 0  2.970423276998917 0 0  3 0.02999999999994495 0  3 0.05999999999987042 0  3 0.089999999999783 0  3 0.119999999999701 0  3 0.149999999999619 0  3 0.179999999999692 0  3 0.2099999999997737 0  3 0.2399999999998511 0  3 0.2699999999999185 0  2.970138294777171 0.3 0  2.940375666438236 0.3 0  2.910711782853056 0.3 0  2.881146331305122 0.3 0  2.851678975030285 0.3 0  2.822309388626621 0.3 0  2.793037250095074 0.3 0  2.76386223529133 0.3 0  2.734784017903872 0.3 0  2.705802289276642 0.3 0  2.676916713794697 0.3 0  2.648126987654635 0.3 0  2.619432780406184 0.3 0  2.590833779385199 0.3 0  2.562329669847737 0.3 0  2.533920134950189 0.3 0  2.505604855727852 0.3 0  2.477383539822502 0.3 0  2.449255847639465 0.3 0  2.421221492569094 0.3 0  2.393280152486815 0.3 0  2.36543151914496 0.3 0  2.337675285481809 0.3 0  2.310011142385583 0.3 0  2.282438797441587 0.3 0  2.254957931061538 0.3 0  2.227568248063605 0.3 0  2.200269436651085 0.3 0  2.173061204949961 0.3 0  2.145943251515011 0.3 0  2.118915272469994 0.3 0  2.091976978084957 0.3 0  2.065128060700849 0.3 0  2.038368218849433 0.3 0  2.01169717777258 0.3 0  1.985114624111908 0.3 0  1.958620267850966 0.3 0  1.93221382054972 0.3 0  1.905894991850698 0.3 0  1.879663489459713 0.3 0  1.853519019126419 0.3 0  1.827461291053897 0.3 0  1.801490031354372 0.3 0  1.775604937580312 0.3 0  1.74980572560258 0.3 0  1.724092118631866 0.3 0  1.698463829173586 0.3 0  1.672920575782554 0.3 0  1.647462076974085 0.3 0  1.622088043536933 0.3 0  1.5967981978949 0.3 0  1.571592267767068 0.3 0  1.546469970305736 0.3 0  1.521431023814044 0.3 0  1.496475156230927 0.3 0  1.471602093687753 0.3 0  1.446811560490646 0.3 0  1.422103279101731 0.3 0  1.397476971708191 0.3 0  1.37293238939876 0.3 0  1.348469231419202 0.3 0  1.324087248732772 0.3 0  1.299786165921677 0.3 0  1.275565710847046 0.3 0  1.251425617644257 0.3 0  1.227365618676339 0.3 0  1.203385446174014 0.3 0  1.179484853067473 0.3 0  1.155663548773374 0.3 0  1.131921292279077 0.3 0  1.108257802159295 0.3 0  1.084672829009693 0.3 0  1.061166115303374 0.3 0  1.037737392995421 0.3 0  1.01438640299116 0.3 0  0.991112899770314 0.3 0  0.9679166155523955 0.3 0  0.944797284182564 0.3 0  0.921754678526042 0.3 0  0.8987885143602501 0.3 0  0.8758985548820624 0.3 0  0.8530845484099929 0.3 0  0.8303462351786988 0.3 0  0.8076833651172373 0.3 0  0.7850956864865304 0.3 0  0.7625829601354557 0.3 0  0.7401449314598274 0.3 0  0.717781337993959 0.3 0  0.6954919649675473 0.3 0  0.6732765357561226 0.3 0  0.6511348120768439 0.3 0  0.6290665642016573 0.3 0  0.6070715355430467 0.3 0  0.5851494825775325 0.3 0  0.5633001690203812 0.3 0  0.5415233562273221 0.3 0  0.5198187909431873 0.3 0  0.4981862401387795 0.3 0  0.4766254686134248 0.3 0  0.4551362360485234 0.3 0  0.4337182975262159 0.3 0  0.4123714223228037 0.3 0  0.3910953802377493 0.3 0  0.3698899313205595 0.3 0  0.3487548463710963 0.3 0  0.3276898864081783 0.3 0  0.3066948129116018 0.3 0  0.2857694003037476 0.3 0  0.2649134227095047 0.3 0  0.2441266417321288 0.3 0  0.2234088223399122 0.3 0  0.2027597568977288 0.3 0  0.1821792020676698 0.3 0  0.1616669305402443 0.3 0  0.1412227158799362 0.3 0  0.12084633013886 0.3 0  0.1005375673448281 0.3 0  0.08029618164595353 0.3 0  0.06012194778526769 0.3 0  0.04001466495039718 0.3 0  0.01997408913631205 0.3 0  0 0.2800000000000553 0  0 0.2600000000001105 0  0 0.2400000000001658 0  0 0.2200000000002211 0  0 0.2000000000002764 0  0 0.1800000000002244 0  0 0.1600000000001691 0  0 0.140000000000115 0  0 0.1200000000000564 0  1.13346801534201 0.01255848438672509 0  1.003577645172735 0.09351054173913405 0  0.9777559943702486 0.1034978156913738 0  0.9524533750752109 0.1040889939962738 0  0.9296242411226409 0.1041520033606139 0  0.9046110503652111 0.104409422380137 0  0.8777709649694228 0.1053360318797398 0  0.8483859145648608 0.1061007868330701 0  0.8162363822948977 0.1052777104363292 0  0.7893110024210437 0.1060761643971561 0  0.7587949382612539 0.1067265405088633 0  0.7280603867732535 0.1069398153264939 0  0.6947001989413015 0.1075609887579097 0  0.6590363283767549 0.1076715322596598 0  0.6210028614493155 0.1072970410408442 0  1.1953125 0.01353164693413185 0  1.258193991486058 0.01269648635163345 0  1.3201967268638 0.01407907077719561 0  1.383538555392096 0.01434101079053473 0  1.445312500000001 0.01303671693628424 0  1.508925448095738 0.01398525724792267 0  0.9939176689634008 0.1034638089837981 0  1.120967497222226 0.2796788492172345 0  1.572835902117391 0.01424132418857359 0  1.637573277451887 0.01212536916586023 0  1.709730776795181 0.01466855431023635 0  1.005631976950563 0.07074019818158772 0  1.784944696816299 0.01454708406461822 0  0.5805605730631225 0.1101465090472147 0  1.855621181165637 0.01550931272897607 0  0.5366111276616774 0.1096761308243709 0  1.935200147913231 0.01760344159641829 0  1.214922267975168 0.2799787705802257 0  1.31178773425331 0.2792
[...]
<PointData  Scalars="pressure"> 
<DataArray  type="Float64"  Name="pressure"  format="ascii">1.5957742066214431e-01  -1.6418728448588271e-01  -2.1433325940353040e-01  -1.5995776303226908e-01  -3.7797134936718824e-02  0.0000000000000000e+00  0.0000000000000000e+00  1.5958493159997247e-01  1.5365129868637153e-01  1.4782066323875806e-01  1.4208394645800382e-01  1.3643962355833530e-01  1.3088618025167970e-01  1.2542213730517116e-01  1.2004606025250857e-01  1.1475647728046086e-01  1.0955199303552599e-01  1.0443121839811172e-01  9.9392747598466419e-02  9.4435230334957224e-02  8.9557352202467647e-02  8.4757749033604654e-02  8.0035122630587846e-02  7.5388258285800272e-02  7.0815757630447673e-02  6.6316428080558112e-02  6.1889027046315499e-02  5.7532252318570495e-02  5.3244941057962243e-02  4.9025961521392880e-02  4.4873962616899632e-02  4.0787863547342311e-02  3.6766374095427684e-02  3.2808399249659802e-02  2.8912889627129582e-02  2.5078576803169043e-02  2.1304278011844285e-02  1.7588945780580838e-02  1.3931448397094934e-02  1.0330590311515998e-02  6.7853812016888644e-03  3.2945814755712473e-03  -1.4283156403857426e-04  -3.5280341784792828e-03  -6.8620970432346304e-03  -1.0145713305740763e-02  -1.3380703427112003e-02  -1.6567673503851049e-02  -1.9707763908511079e-02  -2.2802238705105188e-02  -2.5852122301751077e-02  -2.8857881575165247e-02  -3.1821560349814870e-02  -3.4743652383870033e-02  -3.7625289769620790e-02  -4.0467617082445360e-02  -4.3271625106054479e-02  -4.6038375167176029e-02  -4.8769063336713138e-02  -5.1464623115872840e-02  -5.4126033088222975e-02  -5.6754259027958165e-02  -5.9350893436438040e-02  -6.1916320776748072e-02  -6.4451826234092943e-02  -6.6958061231253266e-02  -6.9437119904788749e-02  -7.1889365832400007e-02  -7.4315083749848437e-02  -7.6716038231210648e-02  -7.9093821730571473e-02  -8.1448117958685270e-02  -8.3781055931142281e-02  -8.6093322001356831e-02  -8.8385238704278196e-02  -9.0658417724979609e-02  -9.2913766941070897e-02  -9.5152235257237927e-02  -9.7375569803657538e-02  -9.9583920352574018e-02  -1.0177767307625982e-01  -1.0395763505757410e-01  -1.0612721745916658e-01  -1.0828552648651749e-01  -1.1043328536148549e-01  -1.1257238937974975e-01  -1.1470326514322306e-01  -1.1682688131732880e-01  -1.1894440839491344e-01  -1.2105772962129506e-01  -1.2316734102190764e-01  -1.2527350829520159e-01  -1.2737864008920441e-01  -1.2948366472804965e-01  -1.3158973814151884e-01  -1.3369828721280569e-01  -1.3581056806729500e-01  -1.3792826980615117e-01  -1.4005315415487743e-01  -1.4218718569670671e-01  -1.4433246200469146e-01  -1.4649055579317594e-01  -1.4866354237715504e-01  -1.5084155940135871e-01  -1.5322103077392257e-01  -1.5457921957655035e-01  -1.5827728124006868e-01  -1.5624001472390975e-01  -1.6112655044799387e-01  -1.5828605271233467e-01  -2.0186351016485868e-01  -1.8042895306915588e-01  -1.7384076738615803e-01  -1.6904167366384970e-01  -1.6579927591151075e-01  -1.6336427106888804e-01  -1.6153896672758661e-01  -1.6020037211502042e-01  -1.5939564701419212e-01  -1.5919738495924257e-01  -1.5960428474465083e-01  -1.6040020485844877e-01  -1.6077574668183914e-01  -1.6056860936564557e-01  -1.5989438457495686e-01  -1.5884354302123857e-01  -1.5745932609399671e-01  -1.5572594293512493e-01  -1.5362997157047351e-01  -1.5120012142604708e-01  -1.4845337148745799e-01  -1.4539321599495950e-01  -1.4203307571274310e-01  -1.3838374915099347e-01  -1.3445705465441654e-01  -1.3027344064578164e-01  -1.2584584569407231e-01  -1.2118674674429268e-01  -1.1631477699791362e-01  -1.1124927560905537e-01  -1.0600124382729892e-01  -1.0060141609934181e-01  -9.5069064195198047e-02  -8.9420650846481028e-02  -8.3688469955739156e-02  -7.7891510303279107e-02  -7.2061538384252458e-02  -6.6221116510922454e-02  -6.0394827703888342e-02  -5.4615659776465847e-02  -4.8905745575259840e-02  -4.3292404364922051e-02  -3.2344977322069812e-02  -2.7022986289215928e-02  -2.1841511742858047e-02  -1.6835908718825399e-02  -1.2033964995936435e-02  -7.4379282745556359e-03  -3.0745239045830027e-03  1.0496252550954350e-03  4.8855848485670041e-03  8.4598104999555977e-03  1.1771630689908195e-02  1.4801337699152008e-02  1.7552183231164416e-02  2.0033168257536753e-02  2.2250055336614723e-02  2.4209868308100596e-02  2.5930811658350018e-02  2.7416118959099053e-02  2.8681499495735976e-02  2.9762704186038338e-02  3.0649239348207902e-02  3.1374882950296210e-02  3.1956623477607748e-02  3.2404481891782140e-02  3.2743183065513784e-02  3.2977169432945708e-02  3.3141692477328372e-02  3.3226680098774206e-02  3.3253472913811810e-02  3.3227021854097913e-02  3.3153428949500095e-02  3.3039309331231517e-02  3.2890668526257168e-02  3.2707747591304973e-02  3.2487375003052113e-02  3.2231648030427017e-02  3.1936852480498240e-02  3.1601251250854979e-02  3.1222217752009226e-02  3.0797248477735073e-02  3.0324792414852031e-02  2.9803896378982085e-02  2.9233607583198009e-02  2.8615658726793110e-02  2.7949411583898832e-02  2.7236343326718010e-02  2.6481050659303722e-02  2.5681512650587789e-02  2.4837521635465983e-02  2.3957722278664727e-02  2.3032032709160138e-02  2.2070251261343623e-02  2.1060625286859171e-02  2.0012769145166694e-02  1.8917802120255997e-02  1.7771033851205962e-02  1.6582102258312855e-02  1.5335782662093180e-02  1.4043146590547088e-02  1.2697461263586174e-02  1.1297543768221199e-02  9.8431072057639114e-03  8.3365006778916804e-03  6.7812097655623694e-03  5.1681803501341878e-03  3.5143363172458067e-03  1.8038200848902255e-03  0.0000000000000000e+00  0.0000000000000000e+00  0.0000000000000000e+00  0.0000000000000000e+00  0.0000000000000000e+00  0.0000000000000000e+00  0.0000000000000000e+00  0.0000000000000000e+00  0.0000000000000000e+00  1.9365333633254995e-03  3.7471545533448924e-03  5.5315714251515666e-03  7.2636518626354044e-03  8.9474121530022446e-03  1.0581805230463068e-02  1.2166150995196426e-02  1.3698862632727011e-02  1.5176994437255368e-02  1.6598091123429144e-02  1.7957534659149701e-02  1.9251967025332387e-02  2.0475182898883740e-02  2.1622947993766239e-02  2.2689368389212337e-02  2.3667331935535201e-02  2.4556785648790529e-02  2.5347981775763653e-02  2.6038877883562590e-02  2.6627247837963386e-02  2.7111022720722112e-02  2.7488820879941884e-02  2.7760266075163607e-02  2.7918530940168770e-02  2.7964980062681333e-02  2.7887591483096958e-02  2.7682702361849020e-02  2.7333419079602961e-02  2.6827878048963503e-02  2.6154527961777425e-02  2.5292536952249128e-02  2.4227465807114122e-02  2.2966738593679356e-02  2.1490339530108270e-02  1.9761637564722965e-02  1.7828979334674564e-02  1.5663177936172640e-02  1.3272753121931111e-02  1.0663180664907469e-02  7.8468586930921461e-03  4.8257325800473974e-03  1.6156893052974145e-03  -1.7840210153748307e-03  -5.3587204330821968e-03  -9.1165433984142091e-03  -1.3039025599932565e-02  -1.7125773661197691e-02  -2.1365898070062311e-02  -2.5765073743796229e-02  -3.0308297052447877e-02  -3.4993339558318605e-02  -3.9809833798344331e-02  -4.4745744192211563e-02  -4.9793559608403502e-02  -5.4938485139779142e-02  -6.0158784791949201e-02  -6.5398906616797828e-02  -7.0702289393028764e-02  -7.5987917447773029e-02  -8.1198899390947571e-02  -8.6337973686265626e-02  -9.1335824451809863e-02  -9.6172987062804055e-02  -1.0074533994453753e-01  -1.0504620584037268e-01  -1.0896694640309822e-01  -1.1249520887106654e-01  -1.1552137315274870e-01  -1.1804862311344902e-01  -1.1994559601602182e-01  -1.2122620089586403e-01  -1.2181935618809259e-01  -1.2159678220298750e-01  -1.2072630773965537e-01  -1.1907476230323256e-01  -1.1664869557257294e-01  -1.1356379229352793e-01  -1.0984343620176715e-01  -1.0561250038757242e-01  -1.0094106731679726e-01  -9.5828728956935935e-02  -9.0411925724979192e-02  -8.4730554713488240e-02  -7.8877933040788994e-02  -7.2858709447018485e-02  -6.6701265800631238e-02  -6.0458495233368915e-02  -5.4143903986478295e-02  -4.7768628212137974e-02  -4.1356669587854569e-02  -3.4913255852067469e-02  -2.8456980323001282e-02  -2.1990879767774904e-02  -1.5517566131311854e-02  -9.0486833506095727e-03  -2.5855253011423242e-03  3.8706775200315255e-03  1.0316371047333942e-02  1.6748405276189333e-02  2.3165574646885536e-02  2.9567357886393131e-02  3.5952184362181852e-02  4.2319864500575601e-02  4.8668743593179048e-02  5.4999187969546379e-02  6.1310449986242292e-02  6.7602252827987791e-02  7.3874495081114697e-02  8.0126860497815158e-02  8.6359294457343375e-02  9.2571760498213071e-02  9.8764158040637928e-02  1.0493645795462339e-01  1.1108865902622021e-01  1.1722077102308152e-01  1.2333277007408990e-01  1.2942472723825837e-01  1.3549666200860028e-01  1.4154860205194117e-01  1.4758060165318418e-01  1.5359269454430655e-01  1.5958490263582722e-01  1.5958459064202973e-01  1.5958382832312995e-01  1.5958263141239190e-01  1.5958117742300165e-01  1.5957972193249473e-01  1.5957852251981680e-01  1.5957775512294031e-01  1.5957744425426587e-01  -1.5204854500627021e-01  -1.8489972338080746e-01  -1.5695102477792799e-01  -1.4329442603765455e-01  -1.3274780213963569e-01  -1.2219142142462075e-01  -1.1168199624948159e-01  -1.0085579588857981e-01  -8.9592973621968830e-02  -8.0516582350772734e-02  -7.0508221314232608e-02  -6.0651681744804023e-02  -5.0139865258405705e-02  -3.9055310890504860e-02  -2.7358115365147262e-02  -1.4006470290312470e-01  -1.2339103904199424e-01  -1.0344562429219835e-01  -8.0732614248723161e-02  -5.7784654071852931e-02  -3.5107460895438911e-02  -1.6957789371327611e-01  -1.1999613527727494e-01  -1.4830881218232766e-02  2.0389749786089372e-03  1.5773896417497851e-02  -1.6527124913999150e-01  2.4997729717609437e-02  -1.5018819904897738e-02  2.9858089560316776e-02  -1.6834148426150073e-03  3.2367575334950965e-02  -1.1016332330008649e-01  -9.3121793423749044e-02  3.3121722298050556e-02  -7.2915594304435533e-02  1.2131193817927280e-02  -4.6879598473653111e-02  3.2869940648485405e-02  2.6994216980202070e-02  -1.5766371416788860e-01  3.2005585990503224e-02  -2.3351810536016804e-02  -1.2069228454897951e-01  4.2398671884518575e-02  3.0505896413214304e-02  -4.5833228126439810e-05  5.9897550581902402e-02  9.1030193811112853e-03  2.8214464830057743e-02  1.6840894500898956e-02  7.7189273868738167e-02  -1.1480367940833189e-01  2.5274603827821183e-02  2.2216332194405396e-02  -1.0316210971969410e-01  2.5724696973966264e-02  2.1543289379726362e-02  -8.7563418771380089e-02  9.7389866180665641e-02  1.1140713368413939e-01  -1.0986241434617090e-02  1.8311664558056957e-02  1.4511474915666889e-02  2.7437394077052750e-02  -6.9983876000591430e-02  2.7731213630239747e-02  -1.4973251809938784e-01  -4.5003288964385699e-02  2.6771285194503180e-02  1.2885903775230542e-01  -2.5261874127133786e-02  1.0541149602625085e-02  2.4049503399997132e-02  -5.6962164830186707e-03  2.0124173820814231e-02  2.0985104777679679e-02  5.1834632476299325e-02  1.7222295895956904e-02  7.0794679254873066e-02  8.9571532407787868e-02  1.2890578786258548e-02  1.2117109883170309e-01  1.6312917982883386e-03  1.5400124716343630e-01  -1.6039738116279817e-01  8.2047861154611254e-03  5.8501454061453484e-03  1.3897362722148807e-01  -1.7183891607089358e-01  -1.5973599721247533e-01  -1.1617286504934095e-01  -5.7207770673369233e-02  6.5999512684555154e-03  3.2427708370707818e-02  1.3931331968308294e-01  -3.7532662374006424e-02  -6.2070557782374684e-02  -8.3143174609723050e-02  -1.0223289220512839e-01  8.7452024393504177e-02  2.7832093248694477e-02  6.8278257717023935e-02  1.0181287467761924e-01  2.5609467767645507e-02  2.3486753292702087e-02  5.0575396660751351e-02  2.6744124748635040e-02  2.9473303631992253e-02  3.5036569936167002e-02  3.1345993900721361e-02  3.2512674613758515e-02  3.3090127330040589e-02  3.2926162035756129e-02  -2.4807454116497995e-02  1.9444774535497089e-02  3.1396214219899354e-02  2.7762639939469341e-02  5.0566180077503643e-03  2.1011914411549877e-02  9.7411287478447340e-03  -5.5029561942509745e-03  1.3664578914416782e-03  -8.8682893754554720e-03  -2.0808030068217305e-02  1.5434094257939937e-01  -3.2973469735333119e-02  -4.4667113590333235e-02  -5.5456512246643462e-02  -6.5819181290088444e-02  -7.5592074657934299e-02  -8.4864433695054975e-02  -1.4653552896621441e-01  -9.6309780177433219e-02  -1.0726142491843429e-01  -1.1796065130932117e-01  -1.3230222962486893e-01  -1.2859358564210538e-01  -9.2589255531860273e-02  -1.1331907323777292e-01  -7.0238152621549019e-02  -4.6422149931580135e-02  -1.3910788904918750e-01  -1.5874082738264347e-01  1.7045631969392204e-03  1.5384453668172435e-01  4.5692445853182297e-03  -1.6016977355414033e-01  1.5459280653779117e-01  1.3951455384376267e-03  1.5048891680265608e-01  -1.6013648160378002e-01  -1.5979638728631160e-01  -1.5933367201950724e-01  -1.5983823590947613e-01  -1.5935806072880485e-01  -1.6019244574866875e-01  -1.5953041738388204e-01  -1.6065037107572147e-01  -1.5981728517085558e-01  -1.6097463880770815e-01  -1.6002259946184827e-01  -1.6090192575668574e-01  -1.5975387691612922e-01  -1.6026939868914505e-01  -1.5898294827804552e-01  -1.5918283907717626e-01  -1.5771882325889261e-01  -1.5770033239794506e-01  -1.5606275276581869e-01  -1.5564498429866044e-01  -1.5369816346454787e-01  -1.5734132515793689e-01  -1.5422047468821140e-01  -1.5146258938883581e-01  -1.5459670980528714e-01  -1.5657036414425746e-01  -1.5175640091749010e-01  -1.4885186572027792e-01  -1.4906985677553139e-01  -1.4579444916767262e-01  -1.4589623875820493e-01  -1.4229548898113342e-01  -1.4231451302425263e-01  -1.3863948285436681e-01  -1.3832159764293345e-01  -1.3390962941584425e-01  -1.3369767698039103e-01  -1.2946666044700392e-01  -1.2882586845596961e-01  -1.2443581204919832e-01  -1.2354935658803216e-01  -1.1907576708971852e-01  -1.1795579443638612e-01  -1.1344968085565649e-01  -1.1205434447925283e-01  -1.0758786182848085e-01  -1.0588035086987144e-01  -1.0150884560125734e-01  -9.9500600099026545e-02  -9.5292073894717347e-02  -9.2934299789498936e-02  -8.8978851031667083e-02  -8.6140905563228079e-02  -1.5273241968418808e-01  -1.5452681377409430e-01  -8.2591504780715946e-02  -7.9314711009940503e-02  -7.6203049402842213e-02  -7.2920126800575399e-02  -6.9923958152024915e-02  -6.6271011513037825e-02  -6.3752317465013877e-02  -5.9756621803490985e-02  -1.4772793975679341e-01  -5.7800518363157229e-02  -5.3368817142135233e-02  -5.1811366681046141e-02  -4.7131694793207779e-02  -4.6179668491193725e-02  -4.1183389923522905e-02  -1.4988031965200618e-01  -1.5182011951374466e-01  -1.6140590090814744e-01  -4.0735032320907819e-02  -3.5446802379584010e-02  -3.5576585169495335e-02  -3.0008732320442408e-02  -3.0684843552224818e-02  -2.4896965903284669e-02  -1.5787883345880924e-01  -2.6076808486707615e-02  -2.0080928903078929e-02  -1.3792621620718939e-01  -2.1736425079158683e-02  -1.5604207134409891e-02  -1.7690847742509220e-02  -1.1457493074510890e-02  -1.3853083975925920e-02  -7.6286644950741452e-03  -1.5834334817810625e-01  -1.2434423776921499e-01  -1.0353385534891183e-02  -4.1161614860234603e-03  -1.4607747532116014e-01  -1.4728931164850431e-01  -1.4449305968167434e-01  -1.0831098168871292e-01  -7.0383730125250718e-03  -7.5547619249436793e-04  -4.0649841000347407e-03  2.2510688872091067e-03  -1.2316916647256467e-03  4.8462334976008010e-03  -3.6048170384932028e-02  2.2582315010614535e-03  -1.9191001405511717e-02  -5.5479126703917997e-02  1.3994793160891385e-03  7.2258905081195720e-03  1.0655380610488272e-02  1.2841951784060487e-02  9.4562290171910420e-03  1.4809069720880159e-02  1.1564554746854161e-02  1.6642530212356378e-02  1.3470691509643945e-02  1.8234478824957864e-02  1.5221496675077857e-02  1.9705287972975109e-02  1.6873763293092023e-02  2.0997216385544325e-02  1.8314888853289843e-02  2.2183918426021954e-02  1.9752267526746036e-02  2.3357972883143573e-02  2.1037634004280964e-02  2.4329827242258569e-02  2.2244314565293643e-02  2.5173735583049750e-02  2.3216820104546312e-02  2.5945285283806813e-02  -7.5775208856196943e-02  -9.1138448267553476e-02  2.4192668872021414e-02  2.6592387840509248e-02  2.5097846415567109e-02  2.7205696350761747e-02  -1.4514208837036835e-01  -1.0985967119486562e-01  2.5888925362655926e-02  2.7701983637170528e-02  -1.2726250919402698e-01  -7.3684535617499269e-02  -1.4135759903617587e-01  -1.4214100940438831e-01  -1.4883799405222981e-01  -1.4255343411700258e-01  -1.4814468689784024e-01  -1.4223509285753849e-01  -1.4811999890533120e-01  -1.4136571757300789e-01  -1.4546692432457881e-01  -1.3948114227815683e-01  -1.4367478012341611e-01  -1.3719832571136353e-01  -1.3984973942231765e-01  -1.3425687402224779e-01  -1.3621078917851018e-01  -1.3112577005069997e-01  -1.3244593118855891e-01  -1.2772256040976360e-01  -1.2861847915803568e-01  -1.2423168553813971e-01  -1.2475005077582019e-01  -1.2063948172764638e-01  -1.2089481178959308e-01  -1.1701900390870940e-01  -1.1704843944611044e-01  -1.1342033391148479e-01  -1.1289351399217021e-01  -1.0953697484695120e-01  -1.0970643592359612e-01  -1.0609430507176675e-01  -1.0584729615389026e-01  -1.0248304130180361e-01  -1.0225173879037885e-01  -9.8915658927722069e-02  -9.8422777067159364e-02  -9.5286165565299660e-02  -1.2896635325297495e-01  -1.0579490583632935e-01  -1.1968374814533717e-01  -9.4726994018207167e-02  -9.1578348281745839e-02  -9.1898900807139000e-02  -8.8364760468056192e-02  -8.7830104485218968e-02  -8.4749576384290176e-02  -8.4036996169694775e-02  -8.1078598092502480e-02  -8.0259313553275063e-02  -7.7349958093576560e-02  -8.4548341291154211e-02  -1.5329656431517463e-01  -1.4525631559570248e-01  -7.6542707937412288e-02  -7.3564876474118676e-02  -7.4329920691329890e-02  -7.0550946372819515e-02  -6.9756039735882458e-02  -6.6791241598136403e-02  -6.5890562599761365e-02  -6.3006002545050635e-02  -1.3714630722134330e-01  -6.7323770031862032e-02  -6.2048446094127060e-02  -5.9235096532868292e-02  -1.2877625727884864e-01  -5.8320512005978542e-02  -5.5408304009092808e-02  -5.6595620735243400e-02  -5.2448137772751473e-02  -5.1472562665626248e-02  -4.8400846822118308e-02  -4.9334813711856371e-02  -4.5289702037488097e-02  -4.4371273437794650e-02  -4.1253243861314938e-02  -4.0326242594751906e-02  -3.7123489631725064e-02  -3.8075625490198189e-02  -3.3949273213601847e-02  -3.2967681857521851e-02  -2.9818431332835994e-02  -2.8875731474822402e-02  -2.5705368149674623e-02  -1.3709786690529405e-01  -1.0553307597856441e-01  -1.2054067305245088e-01  -2.4856700983280348e-02  -2.1624475967165414e-02  -2.2485350781376243e-02  -1.8251150886037865e-02  -1.7395583514005598e-02  -1.4022961512230050e-02  -1.9110788160656783e-02  2.6504303483190533e-02  2.8110441482815517e-02  2.7040712245389620e-02  2.8441142544790316e-02  2.7495132523868968e-02  2.8692913905450434e-02  -8.7147395307172762e-02  -4.5997867342500082e-02  -1.6122175919745579e-01  -1.3135536131788198e-02  -9.8301287370308500e-03  -9.7745249389816311e-02  2.3889950136942621e-02  2.7716549540656797e-02  1.5716860265354814e-02  2.7847041125658979e-02  2.8857513878844998e-02  2.9785906580423377e-02  2.9778964928854817e-02  2.8942116828298062e-02  2.9711699476615169e-02  2.8955298135376638e-02  2.9578695967446524e-02  2.8885201634139119e-02  2.9372345592576586e-02  2.8744219592694405e-02  2.9101222222870305e-02  2.8521875913739649e-02  2.8752241313969300e-02  2.8226564488821070e-02  2.8340601347470337e-02  2.7864458689942653e-02  2.7865513221327468e-02  2.7441001148326413e-02  2.7331638371436786e-02  2.6943826412431898e-02  2.6723865268120293e-02  2.6367252929909542e-02  2.6066307299300383e-02  2.5717575489097495e-02  2.5323585333884353e-02  2.5011551319467744e-02  2.4543339435832319e-02  2.4214600348078322e-02  2.3679468263928159e-02  2.3354301554310137e-02  2.2768975943266264e-02  2.9418376110046402e-02  -3.4968637803212549e-02  -6.8890555157507458e-02  -8.8204219502544205e-03  -5.5279071044495136e-03  -6.5283928996391297e-03  -2.0748940316132752e-03  -3.1196697519141905e-03  1.4371456658341234e-03  2.3618760728607710e-03  5.8935531746405435e-03  6.9381729208988930e-03  1.0442206365611439e-02  9.4950048730145925e-03  1.4031724829737979e-02  1.4836954881020135e-02  1.8533273736956613e-02  1.9324655856069569e-02  