<?xml version="1.0"?>
<VTKFile type="UnstructuredGrid"  version="0.1"  >
<UnstructuredGrid>
<Piece  NumberOfPoints="2886" NumberOfCells="5412">
<Points>
<DataArray  type="Float64"  NumberOfComponents="3"  format="ascii">0 0.1 0  0.98 0.1 0  1 0.1 0  1 0 0  1.5 0 0  3 0 0  3 0.3 0  0 0.3 0  0.01975375321854102 0.1 0  0.03918897458218897 0.1 0  0.05831079002627837 0.1 0  0.07712425666319796 0.1 0  0.0956343475259058 0.1 0  0.1138459546796227 0.1 0  0.1317638870668193 0.1 0  0.1493928840275937 0.1 0  0.1667376092280033 0.1 0  0.1838026357802664 0.1 0  0.2005924801287244 0.1 0  0.2171115811543574 0.1 0  0.2333643037107681 0.1 0  0.2493549444060462 0.1 0  0.2650877293306821 0.1 0  0.2805668058011438 0.1 0  0.2957962848620976 0.1 0  0.3107801766802674 0.1 0  0.3255224447361181 0.1 0  0.3400269848175519 0.1 0  0.3542976327080778 0.1 0  0.3683381609158136 0.1 0  0.3821522744564845 0.1 0  0.3957436316838916 0.1 0  0.4091158196437086 0.1 0  0.4222723742184605 0.1 0  0.4352167733293057 0.1 0  0.4479524348643424 0.1 0  0.4604827295467524 0.1 0  0.4728109659990664 0.1 0  0.4849404035409129 0.1 0  0.4968742471455402 0.1 0  0.508615651843175 0.1 0  0.520167721130924 0.1 0  0.5315335063628542 0.1 0  0.5427160117228604 0.1 0  0.5537181940261912 0.1 0  0.564542961924507 0.1 0  0.575193173270606 0.1 0  0.5856716438765114 0.1 0  0.5959811458006617 0.1 0  0.6061243988680743 0.1 0  0.6161040893285659 0.1 0  0.6259228503970299 0.1 0  0.6355832809287655 0.1 0  0.6450879281079505 0.1 0  0.6544393102991295 0.1 0  0.663639896558931 0.1 0  0.6726921201956305 0.1 0  0.6815983691630338 0.1 0  0.6903610031396646 0.1 0  0.6989823343332418 0.1 0  0.7074646404270378 0.1 0  0.7158101645005117 0.1 0  0.7240211149852543 0.1 0  0.7320996585612525 0.1 0  0.7400479319727645 0.1 0  0.7478680336617921 0.1 0  0.755562036504958 0.1 0  0.7631319665092091 0.1 0  0.7705798279317605 0.1 0  0.777907588066146 0.1 0  0.7851171851013118 0.1 0  0.7922105226004981 0.1 0  0.7991894774550319 0.1 0  0.8060558928136696 0.1 0  0.812811583201334 0.1 0  0.8194583352091183 0.1 0  0.8259979035038147 0.1 0  0.8324320194413813 0.1 0  0.8387623808293405 0.1 0  0.8449906627004957 0.1 0  0.8511185094880469 0.1 0  0.8571475426008311 0.1 0  0.8630793533568246 0.1 0  0.8689155114558531 0.1 0  0.8746575581239063 0.1 0  0.8803070109173519 0.1 0  0.885865363938836 0.1 0  0.8913340851680313 0.1 0  0.8967146206523592 0.1 0  0.9020083930695622 0.1 0  0.9072167995950768 0.1 0  0.9123412183131177 0.1 0  0.9173830029719022 0.1 0  0.9223434865647732 0.1 0  0.9272239785872722 0.1 0  0.9320257720706087 0.1 0  0.9367501330378739 0.1 0  0.9413983102716995 0.1 0  0.9459715351562933 0.1 0  0.9504710127113115 0.1 0  0.9548979346500661 0.1 0  0.9592534708344373 0.1 0  0.9635387708980176 0.1 0  0.9677549682252325 0.1 0  0.971903177251235 0.1 0  0.9759844952956497 0.1 0  0.9840000000000086 0.1 0  0.987999999999974 0.1 0  0.9919999999999393 0.1 0  0.9959999999999913 0.1 0  1 0.09591793123533533 0  1 0.09133596463859224 0  1 0.08619288104391448 0  1 0.08041996484521211 0  1 0.07394008421771697 0  1 0.06666666567302955 0  1 0.05850252932209174 0  1 0.04933859630113544 0  1 0.03905242821848202 0  1 0.02750659386753798 0  1 0.01454683679239736 0  1.015625 0 0  1.03125 0 0  1.046875 0 0  1.0625 0 0  1.078125 0 0  1.09375 0 0  1.109375 0 0  1.125 0 0  1.140625 0 0  1.15625 0 0  1.171875 0 0  1.1875 0 0  1.203125 0 0  1.21875 0 0  1.234375 0 0  1.25 0 0  1.265625 0 0  1.28125 0 0  1.296875 0 0  1.3125 0 0  1.328125 0 0  1.34375 0 0  1.359375 0 0  1.375 0 0  1.390625 0 0  1.40625 0 0  1.421875 0 0  1.4375 0 0  1.453125 0 0  1.46875 0 0  1.484375 0 0  1.515920751924515 0 0  1.531989369316721 0 0  1.54820720925872 0 0  1.564575665560501 0 0  1.581096138674279 0 0  1.597770029901263 0 0  1.614598783332311 0 0  1.631583831055205 0 0  1.64872661129721 0 0  1.666028606716533 0 0  1.683491276608443 0 0  1.701116134125304 0 0  1.718904673324128 0 0  1.736858414799339 0 0  1.754978895814663 0 0  1.773267661782904 0 0  1.791726281103402 0 0  1.810356325314689 0 0  1.8291593848892 0 0  1.848137076690385 0 0  1.867291007717254 0 0  1.886622833871288 0 0  1.90613418642363 0 0  1.925826753299799 0 0  1.945702199101513 0 0  1.96576223584749 0 0  1.986008569283268 0 0  2.006442931928877 0 0  2.02706707547783 0 0  2.047882750887917 0 0  2.06889175187935 0 0  2.090095860038271 0 0  2.111496891648636 0 0  2.133096679109554 0 0  2.154897066851056 0 0  2.176899916687499 0 0  2.199107102752146 0 0  2.22152053937028 0 0  2.244142122958061 0 0  2.266973806444078 0 0  2.290017523268154 0 0  2.313275249499252 0 0  2.336748971745516 0 0  2.360440702338606 0 0  2.384352453384031 0 0  2.408486280477412 0 0  2.432844240041185 0 0  2.457428414757088 0 0  2.482240901796653 0 0  2.507283830121838 0 0  2.532559332080812 0 0  2.558069568787417 0 0  2.583816724966441 0 0  2.60980299606584 0 0  2.636030600971886 0 0  2.662501790984011 0 0  2.689218818279327 0 0  2.716183964547616 0 0  2.743399548861297 0 0  2.77086788244719 0 0  2.798591312896326 0 0  2.826572223178268 0 0  2.854812990138617 0 0  2.883316031690714 0 0  2.912083780657189 0 0  2.941118704633482 0 0  2.970423276998917 0 0  3 0.02999999999994495 0  3 0.05999999999987042 0  3 0.089999999999783 0  3 0.119999999999701 0  3 0.149999999999619 0  3 0.179999999999692 0  3 0.2099999999997737 0  3 0.2399999999998511 0  3 0.2699999999999185 0  2.970138294777171 0.3 0  2.940375666438236 0.3 0  2.910711782853056 0.3 0  2.881146331305122 0.3 0  2.851678975030285 0.3 0  2.822309388626621 0.3 0  2.793037250095074 0.3 0  2.76386223529133 0.3 0  2.734784017903872 0.3 0  2.705802289276642 0.3 0  2.676916713794697 0.3 0  2.648126987654635 0.3 0  2.619432780406184 0.3 0  2.590833779385199 0.3 0  2.562329669847737 0.3 0  2.533920134950189 0.3 0  2.505604855727852 0.3 0  2.477383539822502 0.3 0  2.449255847639465 0.3 0  2.421221492569094 0.3 0  2.393280152486815 0.3 0  2.36543151914496 0.3 0  2.337675285481809 0.3 0  2.310011142385583 0.3 0  2.282438797441587 0.3 0  2.254957931061538 0.3 0  2.227568248063605 0.3 0  2.200269436651085 0.3 0  2.173061204949961 0.3 0  2.145943251515011 0.3 0  2.118915272469994 0.3 0  2.091976978084957 0.3 0  2.065128060700849 0.3 0  2.038368218849433 0.3 0  2.01169717777258 0.3 0  1.985114624111908 0.3 0  1.958620267850966 0.3 0  1.93221382054972 0.3 0  1.905894991850698 0.3 0  1.879663489459713 0.3 0  1.853519019126419 0.3 0  1.827461291053897 0.3 0  1.801490031354372 0.3 0  1.775604937580312 0.3 0  1.74980572560258 0.3 0  1.724092118631866 0.3 0  1.698463829173586 0.3 0  1.672920575782554 0.3 0  1.647462076974085 0.3 0  1.622088043536933 0.3 0  1.5967981978949 0.3 0  1.571592267767068 0.3 0  1.546469970305736 0.3 0  1.521431023814044 0.3 0  1.496475156230927 0.3 0  1.471602093687753 0.3 0  1.446811560490646 0.3 0  1.422103279101731 0.3 0  1.397476971708191 0.3 0  1.37293238939876 0.3 0  1.348469231419202 0.3 0  1.324087248732772 0.3 0  1.299786165921677 0.3 0  1.275565710847046 0.3 0  1.251425617644257 0.3 0  1.227365618676339 0.3 0  1.203385446174014 0.3 0  1.179484853067473 0.3 0  1.155663548773374 0.3 0  1.131921292279077 0.3 0  1.108257802159295 0.3 0  1.084672829009693 0.3 0  1.061166115303374 0.3 0  1.037737392995421 0.3 0  1.01438640299116 0.3 0  0.991112899770314 0.3 0  0.9679166155523955 0.3 0  0.944797284182564 0.3 0  0.921754678526042 0.3 0  0.8987885143602501 0.3 0  0.8758985548820624 0.3 0  0.8530845484099929 0.3 0  0.8303462351786988 0.3 0  0.8076833651172373 0.3 0  0.7850956864865304 0.3 0  0.7625829601354557 0.3 0  0.7401449314598274 0.3 0  0.717781337993959 0.3 0  0.6954919649675473 0.3 0  0.6732765357561226 0.3 0  0.6511348120768439 0.3 0  0.6290665642016573 0.3 0  0.6070715355430467 0.3 0  0.5851494825775325 0.3 0  0.5633001690203812 0.3 0  0.5415233562273221 0.3 0  0.5198187909431873 0.3 0  0.4981862401387795 0.3 0  0.4766254686134248 0.3 0  0.4551362360485234 0.3 0  0.4337182975262159 0.3 0  0.4123714223228037 0.3 0  0.3910953802377493 0.3 0  0.3698899313205595 0.3 0  0.3487548463710963 0.3 0  0.3276898864081783 0.3 0  0.3066948129116018 0.3 0  0.2857694003037476 0.3 0  0.2649134227095047 0.3 0  0.2441266417321288 0.3 0  0.2234088223399122 0.3 0  0.2027597568977288 0.3 0  0.1821792020676698 0.3 0  0.1616669305402443 0.3 0  0.1412227158799362 0.3 0  0.12084633013886 0.3 0  0.1005375673448281 0.3 0  0.08029618164595353 0.3 0  0.06012194778526769 0.3 0  0.04001466495039718 0.3 0  0.01997408913631205 0.3 0  0 0.2800000000000553 0  0 0.2600000000001105 0  0 0.2400000000001658 0  0 0.2200000000002211 0  0 0.2000000000002764 0  0 0.1800000000002244 0  0 0.1600000000001691 0  0 0.140000000000115 0  0 0.1200000000000564 0  1.13346801534201 0.01255848438672509 0  1.003577645172735 0.09351054173913405 0  0.9777559943702486 0.1034978156913738 0  0.9524533750752109 0.1040889939962738 0  0.9296242411226409 0.1041520033606139 0  0.9046110503652111 0.104409422380137 0  0.8777709649694228 0.1053360318797398 0  0.8483859145648608 0.1061007868330701 0  0.8162363822948977 0.1052777104363292 0  0.7893110024210437 0.1060761643971561 0  0.7587949382612539 0.1067265405088633 0  0.7280603867732535 0.1069398153264939 0  0.6947001989413015 0.1075609887579097 0  0.6590363283767549 0.1076715322596598 0  0.6210028614493155 0.1072970410408442 0  1.1953125 0.01353164693413185 0  1.258193991486058 0.01269648635163345 0  1.3201967268638 0.01407907077719561 0  1.383538555392096 0.01434101079053473 0  1.445312500000001 0.01303671693628424 0  1.508925448095738 0.01398525724792267 0  0.9939176689634008 0.1034638089837981 0  1.120967497222226 0.2796788492172345 0  1.572835902117391 0.01424132418857359 0  1.637573277451887 0.01212536916586023 0  1.709730776795181 0.01466855431023635 0  1.005631976950563 0.07074019818158772 0  1.784944696816299 0.01454708406461822 0  0.5805605730631225 0.1101465090472147 0  1.855621181165637 0.01550931272897607 0  0.5366111276616774 0.1096761308243709 0  1.935200147913231 0.01760344159641829 0  1.214922267975168 0.2799787705802257 0  1.31178773425331 0.2792
[...]
<PointData  Scalars="pressure"> 
<DataArray  type="Float64"  Name="pressure"  format="ascii">2.8103744692280976e-02  -9.4501988970205431e-01  -1.2677061972040764e-02  -1.8397854609445688e-03  2.5151572400263725e-02  0.0000000000000000e+00  0.0000000000000000e+00  2.8181337711040089e-02  2.2177659684179851e-02  1.6346378448640203e-02  1.0608051799284025e-02  4.9610824793278963e-03  -5.9625297367553324e-04  -6.0655440892475312e-03  -1.1448148078242430e-02  -1.6746006322487302e-02  -2.1960479659597330e-02  -2.7093118049481221e-02  -3.2145807538718700e-02  -3.7120072353695799e-02  -4.2017274412313892e-02  -4.6839486548141157e-02  -5.1588295174370920e-02  -5.6264635509993312e-02  -6.0871463822935346e-02  -6.5409876063217035e-02  -6.9881622653109890e-02  -7.4289267840162460e-02  -7.8634098275481068e-02  -8.2917239567053519e-02  -8.7142323661294471e-02  -9.1310275565846505e-02  -9.5424424370391212e-02  -9.9486217843699126e-02  -1.0349674945697654e-01  -1.0745963594244548e-01  -1.1137770769466612e-01  -1.1525256347113642e-01  -1.1908683888365985e-01  -1.2288400434866376e-01  -1.2664553270359269e-01  -1.3037566321383556e-01  -1.3407652156840380e-01  -1.3775204662650065e-01  -1.4140519814917590e-01  -1.4503494102949790e-01  -1.4865269946984533e-01  -1.5225694521154698e-01  -1.5585187473710096e-01  -1.5944362066596393e-01  -1.6303552410411790e-01  -1.6662500814642686e-01  -1.7022730951347184e-01  -1.7384049989872685e-01  -1.7747001971247894e-01  -1.8112162402414231e-01  -1.8479969483822226e-01  -1.8850953895107400e-01  -1.9225819025939986e-01  -1.9605018477809000e-01  -1.9989059596481223e-01  -2.0378476946816637e-01  -2.0774573505988417e-01  -2.1177263301477106e-01  -2.1587582741892555e-01  -2.2005768744097692e-01  -2.2433944453983512e-01  -2.2872251304692437e-01  -2.3320496267362650e-01  -2.3780597068879689e-01  -2.4254330385062922e-01  -2.4741005308921712e-01  -2.5243272330157224e-01  -2.5761991178101923e-01  -2.6297344487025870e-01  -2.6851684664349362e-01  -2.7426412942663914e-01  -2.8023029159702623e-01  -2.8644603448160177e-01  -2.9291872280780640e-01  -2.9965842336011417e-01  -3.0668156712683176e-01  -3.1406289858357056e-01  -3.2179473460295599e-01  -3.2990417572458547e-01  -3.3844486113530076e-01  -3.4744498328924306e-01  -3.5695399710298131e-01  -3.6702124560188332e-01  -3.7773951416204216e-01  -3.8916342573813212e-01  -4.0135521062615354e-01  -4.1446015333440256e-01  -4.2859850233614005e-01  -4.4392250024409508e-01  -4.6063747229656443e-01  -4.7899324929295628e-01  -4.9931646511087086e-01  -5.2205651622729998e-01  -5.4783339057989877e-01  -5.7752280595830396e-01  -6.1233133660008354e-01  -6.5465349109892190e-01  -7.0795751487606640e-01  -7.7729344366682340e-01  -9.0057067771132249e-01  -1.9489395911170440e+00  -1.7395113130956823e+00  -1.2011161046905399e+00  -6.9664217656032024e-01  -1.5435972856706698e-01  -6.5465828634195256e-02  -4.8405053871428398e-02  -3.2445279493559694e-02  -2.2477184075291892e-02  -1.5511043335781464e-02  -1.0393305525519847e-02  -6.2628302664301813e-03  -3.0630608070966472e-03  -1.1165745148182362e-03  -1.0495199390306166e-03  -2.8081237326852962e-03  -2.6737090247418785e-03  -6.6055477674991617e-04  3.2192318631193905e-03  9.0100610096740582e-03  1.6617454489487302e-02  2.5855541330569498e-02  3.6370936214069512e-02  4.7459622665386857e-02  5.8430436192881102e-02  6.8666693414818569e-02  7.7603916265809564e-02  8.4884185279018434e-02  9.0274675329663046e-02  9.3662661944982545e-02  9.5122350590860591e-02  9.4810905990876992e-02  9.2938516238349103e-02  8.9806746304110660e-02  8.5637016696051546e-02  8.0642657617111618e-02  7.5242116421787408e-02  6.9437144552188440e-02  6.3573698915775426e-02  5.7758924431069690e-02  5.2110991279415472e-02  4.6695807018124355e-02  4.1612000731485778e-02  3.6886705262515869e-02  3.2566568224881805e-02  2.8654360404704111e-02  2.1996899023719884e-02  1.9224452146498310e-02  1.6834467382559583e-02  1.4787449413070081e-02  1.3082980010490766e-02  1.1737094893168673e-02  1.0627192364022509e-02  9.8077344367689667e-03  9.2634269487791802e-03  8.9481928960203176e-03  8.8176941479122112e-03  8.8751277098894996e-03  9.1017912312485530e-03  9.4660484765163554e-03  9.9542851231554930e-03  1.0550877539666687e-02  1.1229723097741146e-02  1.1985076906325486e-02  1.2801372074083463e-02  1.3658031322378366e-02  1.4551958012449764e-02  1.5464830439585728e-02  1.6384415859120087e-02  1.7310006316483596e-02  1.8220859894722444e-02  1.9123088218325406e-02  1.9991852303637446e-02  2.0832685289098971e-02  2.1634066609650091e-02  2.2393597652467370e-02  2.3106837532384870e-02  2.3766321721121010e-02  2.4368214347203487e-02  2.4908869547221005e-02  2.5385597002530444e-02  2.5794651036130749e-02  2.6133513144163019e-02  2.6399995777307339e-02  2.6591709368001187e-02  2.6707897448488716e-02  2.6747420834738165e-02  2.6708949178438773e-02  2.6592001457435958e-02  2.6396176890550023e-02  2.6120226915154920e-02  2.5764318006597030e-02  2.5330737283735354e-02  2.4817579230396503e-02  2.4221763404577712e-02  2.3558361277507562e-02  2.2809731375125090e-02  2.1995588501960501e-02  2.1098454197935646e-02  2.0137838814058288e-02  1.9105079784524869e-02  1.7994063493599353e-02  1.6828427518283704e-02  1.5585980033079410e-02  1.4287126371088506e-02  1.2925169983613720e-02  1.1501221802972210e-02  1.0015959999971879e-02  8.4768070145204554e-03  6.8857982691646561e-03  5.2348664809264648e-03  3.5493544982299645e-03  1.8042018600030942e-03  0.0000000000000000e+00  0.0000000000000000e+00  0.0000000000000000e+00  0.0000000000000000e+00  0.0000000000000000e+00  0.0000000000000000e+00  0.0000000000000000e+00  0.0000000000000000e+00  0.0000000000000000e+00  2.0565665385554083e-03  3.9624851633689147e-03  5.8464589234752187e-03  7.6820542142652113e-03  9.4728841495443587e-03  1.1219974596727800e-02  1.2924046936084774e-02  1.4584639308437430e-02  1.6200467500388515e-02  1.7771434687469036e-02  1.9295394511716503e-02  2.0772134431159970e-02  2.2198765411254377e-02  2.3574218811410405e-02  2.4895657233430925e-02  2.6160591811336616e-02  2.7368254926082670e-02  2.8511701351899066e-02  2.9587865625713927e-02  3.0592066945540133e-02  3.1519650332752579e-02  3.2363272270259126e-02  3.3119309670215910e-02  3.3779512847235800e-02  3.4331771576918677e-02  3.4773700554384605e-02  3.5093446610082804e-02  3.5278193250209255e-02  3.5319630935716849e-02  3.5208717584498180e-02  3.4932005896720006e-02  3.4477472435079523e-02  3.3851594244387016e-02  3.3031809229859321e-02  3.1993109117515406e-02  3.0768237444730135e-02  2.9319829083561642e-02  2.7662324435351358e-02  2.5785049946777452e-02  2.3703698359032403e-02  2.1410681621284310e-02  1.8917865322944798e-02  1.6241961623952347e-02  1.3391208231569052e-02  1.0382063368522966e-02  7.2332449397970126e-03  3.9608507578629349e-03  5.8492245133036206e-04  -2.8703214922137072e-03  -6.3845507156085274e-03  -9.9396127736538723e-03  -1.3516904848544457e-02  -1.7099321617094477e-02  -2.0674058902453572e-02  -2.4230097857290262e-02  -2.7759852707041142e-02  -3.1261479439580957e-02  -3.4735943684774548e-02  -3.8191004090208196e-02  -4.1636884308703513e-02  -4.5091787723189392e-02  -4.8579613203685312e-02  -5.2129840971661984e-02  -5.5781228229321557e-02  -5.9579757735075074e-02  -6.3580480533291669e-02  -6.7844276039930373e-02  -7.2453900548954620e-02  -7.7482118259343286e-02  -8.3028610170703010e-02  -8.9191138910390433e-02  -9.6054858472665414e-02  -1.0368017407795997e-01  -1.1206716641929210e-01  -1.2105802345447170e-01  -1.3047746568988042e-01  -1.3989728184906045e-01  -1.4890753225077277e-01  -1.5708238484700446e-01  -1.6421600981310180e-01  -1.6974484103601600e-01  -1.7377420223131801e-01  -1.7620341672407605e-01  -1.7744179033008561e-01  -1.7737062677696336e-01  -1.7609511225599767e-01  -1.7395073744558537e-01  -1.7102744499829944e-01  -1.6738182746175514e-01  -1.6321341873690229e-01  -1.5856000363590747e-01  -1.5359156194523982e-01  -1.4833404557081339e-01  -1.4280973580363046e-01  -1.3713289931561287e-01  -1.3131654201615711e-01  -1.2537245703070404e-01  -1.1933685124032226e-01  -1.1324214027732557e-01  -1.0710119565487353e-01  -1.0091987790798154e-01  -9.4714889297518035e-02  -8.8488784227947773e-02  -8.2259283177802067e-02  -7.6023219560293273e-02  -6.9788980630534458e-02  -6.3560103248724284e-02  -5.7338258996525046e-02  -5.1127362784567205e-02  -4.4928644267149875e-02  -3.8743143971382454e-02  -3.2572488153992385e-02  -2.6417662010624128e-02  -2.0279318141372765e-02  -1.4157991467174174e-02  -8.0545705209965207e-03  -1.9688970808461677e-03  4.0985387489639183e-03  1.0147391293790780e-02  1.6177658475368013e-02  2.2189004593814898e-02  2.8181038257620500e-02  2.8177814309125825e-02  2.8169938609129683e-02  2.8157574190616097e-02  2.8142554671679774e-02  2.8127519617575356e-02  2.8115129274126481e-02  2.8107201018245282e-02  2.8103988625277094e-02  4.1424094488287128e-02  -6.4207684013306787e-02  -1.0001585206754247e+00  -5.6645777642681061e-01  -4.5464603603411702e-01  -3.8483229598374130e-01  -3.3563847259848423e-01  -2.9739062063960509e-01  -2.6627800989252026e-01  -2.4578219974014856e-01  -2.2647934494226349e-01  -2.0995806189839850e-01  -1.9431915163029459e-01  -1.7939974613906112e-01  -1.6489354421164637e-01  7.9716514919556045e-02  9.3633602296727805e-02  8.2198884731441949e-02  5.9955962690267615e-02  3.9173596977598688e-02  2.3555407652768777e-02  -6.0142942084959106e-01  -8.5139745749519366e-02  1.4260190804581222e-02  9.9148086200570879e-03  9.2989230746410214e-03  -1.8809596702028510e-02  1.1251035689736139e-02  -1.5055807906912202e-01  1.4237556332797292e-02  -1.3578165201935463e-01  1.7934164264090578e-02  -6.5534809653415280e-02  -5.0294763130618522e-02  2.1486200594544345e-02  -3.6530782688749014e-02  -1.2100547004217156e-01  -1.9001434380648288e-02  2.4128774955100095e-02  -1.0549391662359550e-01  1.3065044138381634e-02  2.6025730984056670e-02  -1.3404535321558913e-03  -1.0713749764696527e-01  -8.9675598272593679e-02  2.6763129197323071e-02  1.7326863039826338e-02  -7.1901017586925534e-02  2.4390192318299243e-02  2.6254949632933604e-02  2.9889407853537959e-02  -5.4455039730940763e-02  -1.3343214175342827e-01  2.4555843321921619e-02  3.3268893189017240e-02  -1.5945002549289244e-01  3.4911739390397718e-02  2.1549640979718326e-02  -1.7431020312396794e-01  -3.4157097887817782e-02  -2.0102767248954073e-02  8.5793965953035595e-03  1.8537737823698514e-02  1.4776417908580490e-02  3.5017104772733669e-02  -1.7644963550587089e-01  3.3256910650078783e-02  -6.8542760567384198e-01  -1.6542921173244066e-01  3.0924297037697206e-02  -2.6258407258418427e-03  -1.5092049202179900e-01  1.0747492205181477e-02  2.6687932462756837e-02  -1.3407982462791149e-01  -1.0999717694941474e-01  2.2809286989785210e-02  -7.9134379178408543e-02  1.8467256475566494e-02  -6.0390761482495142e-02  -4.1728529249481894e-02  1.3703358570756675e-02  -1.0212559720216816e-02  1.7062434343135628e-03  2.2568901663079444e-02  -5.2511882178328381e-03  8.6759686734744004e-03  5.9528178221784963e-03  7.5740204039667393e-03  -3.6222596993347636e-02  1.7304519517445918e-03  -7.4508685530412747e-02  -1.7224398989741435e-01  -1.2279515997311277e-01  -9.8126476115181271e-02  7.8358000038083204e-03  -1.2188289725580876e-02  -2.9434308119095306e-02  -4.3292790315542638e-02  -5.7519009323558662e-02  -4.4134487321989394e-02  3.4392042390303641e-02  -6.3434767090353575e-02  -2.9531175032423133e-02  2.8944223701199184e-02  2.3201535231829003e-02  -8.1350648558194863e-02  2.5503117986112798e-02  2.6673135683115846e-02  -9.7210681633342025e-02  2.6543433535193044e-02  2.5210091638669746e-02  2.2748421574676003e-02  1.9818299553858533e-02  1.8272860687186979e-02  -1.1333420476728889e-01  1.6057049398037343e-02  1.2670172410172913e-02  -1.2852156840701320e-01  1.0045175417385598e-02  9.1966008887390902e-03  1.1480128107627705e-02  1.4024376307360277e-03  -1.4366346383106290e-01  -1.5718404103609307e-01  2.2882430081074490e-02  -1.7173947979584819e-01  -1.8678472711764310e-01  -2.0201648212090823e-01  -2.1837666911616896e-01  -2.3592359819565423e-01  -2.5520338203397391e-01  6.2801916963189680e-02  -2.8392801303505127e-01  -3.1870745015387669e-01  -3.6321257447898270e-01  9.0441726035184203e-02  -4.2382860487102841e-01  7.1822172752815633e-02  8.9929892847853826e-02  4.9925610063212396e-02  3.0672264046671394e-02  -5.1407622581885859e-01  -1.4511775920124050e+00  1.7955088180149883e-03  2.2434379577698511e-02  4.8211356691752827e-03  -1.8425114546781545e-03  2.3120364042929692e-02  1.4162618315914800e-03  1.9085684053756991e-02  -7.6828525246272830e-04  -1.7145116368265652e-04  2.2421287329351201e-03  -7.0782684574543088e-04  1.8820378677316060e-03  -1.2061294027041754e-03  2.3093837636592235e-03  -7.9227962822869748e-04  3.3168497009119897e-03  2.7823901341862049e-04  4.3602362143675853e-03  4.7273776558238133e-04  4.6077459218524242e-03  -1.8851174299313951e-03  2.4035699719514858e-03  -7.4120627220906786e-03  -2.9056532810118841e-03  -1.6095745813448477e-02  -1.1282927796005916e-02  -2.6813833418791493e-02  -2.0865605675309790e-02  -3.4175579449242072e-02  -3.4717426457372092e-03  -1.5605956209889797e-02  -4.4675055948124064e-02  -5.4285247310882738e-02  4.3379268883808597e-04  -1.1113006883972456e-02  5.8776328493812318e-03  -8.2079754851045947e-03  1.0217591370745883e-02  -7.0779815753117988e-03  1.3299243476488287e-02  -4.1948424948019779e-03  1.5629037851755876e-02  -6.2816843019668873e-03  1.5109719173046531e-02  -4.3614445186114653e-03  1.4985084737418953e-02  -5.4899917111549887e-03  1.3535714598334747e-02  -6.8605742815193724e-03  1.1373803094194349e-02  -8.8671496485478625e-03  8.7025404064206332e-03  -1.0360839562845423e-02  5.8370285804866858e-03  -1.2319569087870994e-02  2.8892718482416637e-03  -1.3712069588893828e-02  -8.7840205149988099e-04  -1.5064565592877594e-02  -1.3738882080197843e-03  -6.3386956805719763e-02  -7.6852578174880393e-02  -1.6510114599693999e-02  -4.9326504578713496e-03  -1.6655755125386910e-02  -6.2470299073068931e-03  -1.7363639497088520e-02  -7.6262932602567156e-03  -1.7272444440331290e-02  -8.4495993427359424e-03  -2.7099702979286319e-02  -1.6735639175162742e-02  -8.8720297920356003e-03  -1.6965593995071099e-02  -9.1216378615475158e-03  -1.4891574985340538e-02  -8.5755478759506776e-03  -8.1508682666096788e-02  -1.0024987526130019e-01  -4.8787791505635440e-03  -1.3675569196034914e-02  -7.9110339588829640e-03  -1.2061961838681556e-02  -6.9565826775028544e-03  -1.0329820646039859e-02  -5.7672869792464859e-03  -7.2481651399285058e-02  -8.4041305278587889e-03  -4.3449050953115300e-03  -2.3768436189555830e-02  -6.3534135697089272e-03  -2.7577220623075968e-03  -4.1951372540058119e-03  -9.9375323662873830e-04  -1.9187494972404589e-03  8.5016619079677504e-04  9.7523937951823920e-03  -2.3031540568861211e-02  3.7829044537107654e-04  2.8185338998344559e-03  -9.7950119218157911e-02  -1.1667915129141689e-01  -8.3577167322247667e-02  -2.4968208663766932e-02  2.7215153771343601e-03  4.8851024650691452e-03  5.0716261279055630e-03  6.9769016698050575e-03  7.4264399246550677e-03  9.0080287132372761e-03  -1.9968166808721852e-03  5.2860302491579197e-03  -1.1090191392574720e-03  5.1337213905709592e-04  9.7473928838757787e-03  1.1048334225662516e-02  1.0350831719642996e-02  1.2085703516041348e-02  1.3055887453465509e-02  1.3800538793920842e-02  1.5017216305535699e-02  1.5533127552837072e-02  1.6925541479742526e-02  1.7257273122475707e-02  1.8758130050316513e-02  1.8902599721137201e-02  2.0501637776214780e-02  2.0473952189022263e-02  2.2169044234100415e-02  2.1971176925802381e-02  2.3715321104947271e-02  2.3328580481643445e-02  2.5136752377270810e-02  2.4633171475762407e-02  2.6460979177375176e-02  2.5829346901076720e-02  2.7693812200472540e-02  2.6929758295534012e-02  6.2143954286780238e-03  -2.6902247662080051e-02  2.8778421950545686e-02  2.7913393770138982e-02  2.9694626266314722e-02  2.8780503032621859e-02  2.8344485576462165e-02  2.6271059457905345e-02  3.0507999689123204e-02  2.9530637254479086e-02  3.4488153893591049e-02  -2.4923521211620388e-02  -1.0950123964277891e-01  -1.2889726595171527e-01  -1.4543481044187667e-01  -1.5452101582503078e-01  -1.7963147202396990e-01  -1.8334821771702020e-01  -2.2335186864856033e-01  -2.1578402142962613e-01  -2.5827788272926022e-01  -2.4510974495656448e-01  -2.9529640361010445e-01  -2.7120676586909254e-01  -3.1935645138301971e-01  -2.9037405791639359e-01  -3.3497743202919722e-01  -3.0349312118745425e-01  -3.4173155681026990e-01  -3.0998044762462618e-01  -3.4198108737127975e-01  -3.1125464802857522e-01  -3.3750238028226481e-01  -3.0896030260921520e-01  -3.3046786638320819e-01  -3.0452817240318925e-01  -3.2198792561949835e-01  -2.9884577740602269e-01  -3.1171671115801403e-01  -2.9068106146178996e-01  -2.7627728644053240e-01  -2.7188531542076499e-01  -2.8415472323556618e-01  -2.6715894508641741e-01  -2.7866726728928570e-01  -2.6244771840697967e-01  -2.7128482145267468e-01  -2.5696650438263224e-01  -2.5672970209870771e-01  -2.5507176750798977e-01  -2.8270682596918983e-01  -2.6437246359277272e-01  -2.5142852622718403e-01  -2.4250976123050907e-01  -2.3855952386640386e-01  -2.4590460448343668e-01  -2.3468880466155942e-01  -2.4030881931607104e-01  -2.3031110684559364e-01  -2.3473697663236731e-01  -2.2542234172704606e-01  -2.2635247749574536e-01  -2.0916086777581439e-01  -3.5346846554313055e-01  -2.2928460258455780e-01  -2.2069318787276343e-01  -2.1621283242579711e-01  -2.1212519235820607e-01  -2.1600840531620402e-01  -2.0826520859072864e-01  -2.1119181437266502e-01  -2.0413197140282704e-01  -3.8227474102434356e-01  -2.0396647412147956e-01  -2.0640425290053505e-01  -2.0002287163318413e-01  -3.6937337985958335e-01  -2.0177523965192923e-01  -1.9568462733976505e-01  -1.9388555143728661e-01  -1.8960225135211045e-01  -1.9128011240481618e-01  -1.8552038057261627e-01  -1.8345559438576647e-01  -1.7979628075512058e-01  -1.8141276267755121e-01  -1.7602246453182713e-01  -1.7722319468925418e-01  -1.7205449450868535e-01  -1.7073929118136627e-01  -1.6705146477396593e-01  -1.6796821233992937e-01  -1.6322524136437785e-01  -1.6384413433820041e-01  -1.5929042040180313e-01  -1.5683509820484745e-01  -2.9517130194491453e-01  -3.4488802788161083e-01  -1.5974168304603048e-01  -1.5531497899279054e-01  -1.5478595536463310e-01  -1.5082117549335863e-01  -1.5111690466740046e-01  -1.4679750785501283e-01  -1.5027170727154340e-01  3.1232729066747834e-02  3.0176472640126101e-02  3.1804559697903349e-02  3.0700194695444417e-02  3.2242776145204849e-02  3.1105011075774715e-02  -2.5103612155893296e-01  -1.8914079868569807e-02  -3.6264518770415533e-03  -1.4684506558166510e-01  -1.4271855423468396e-01  -2.7725096812346611e-01  1.8724267676935219e-02  2.5009055986705268e-02  1.1352939483044999e-02  3.2556366627164365e-02  3.1392924014679170e-02  2.9818836135684805e-02  3.0104002388482844e-02  3.1568794832699261e-02  3.0275372101337163e-02  3.1623544017232198e-02  3.0338155866190805e-02  3.1581629639211871e-02  3.0316916439595155e-02  3.1432264768125551e-02  3.0189503287771969e-02  3.1191823470825688e-02  2.9976629420460713e-02  3.0870016891840883e-02  2.9661017986500816e-02  3.0447162619700652e-02  2.9257147662113292e-02  2.9929526952699612e-02  2.8758180114136406e-02  2.9313738645835277e-02  2.8173702608083554e-02  2.8626262905588298e-02  2.7508126918012143e-02  2.7868279045969651e-02  2.6757891117840053e-02  2.7026311357796848e-02  2.5936203368906195e-02  2.6073325342666074e-02  2.5026644595736121e-02  2.5127379416745473e-02  2.4059278947394402e-02  2.8322529118366462e-02  -1.6580479529514033e-01  -2.1889395301362533e-01  -1.4247598026622038e-01  -1.3847222672034720e-01  -1.3864622268666743e-01  -1.3434970660334591e-01  -1.3454804915606425e-01  -1.3023857560474625e-01  -1.3002310435816181e-01  -1.2596289911509251e-01  -1.2550815728711379e-01  -1.2154513185072149e-01  -1.2190866590433552e-01  -1.1755159401405102e-01  -1.1723270000966445e-01  -1.1318288700985919e-01  -1.1278494112469402e-01  -1.0874987461