<?xml version="1.0"?>
<VTKFile type="UnstructuredGrid"  version="0.1"  >
<UnstructuredGrid>
<Piece  NumberOfPoints="2886" NumberOfCells="5412">
<Points>
<DataArray  type="Float64"  NumberOfComponents="3"  format="ascii">0 0.1 0  0.98 0.1 0  1 0.1 0  1 0 0  1.5 0 0  3 0 0  3 0.3 0  0 0.3 0  0.01975375321854102 0.1 0  0.03918897458218897 0.1 0  0.05831079002627837 0.1 0  0.07712425666319796 0.1 0  0.0956343475259058 0.1 0  0.1138459546796227 0.1 0  0.1317638870668193 0.1 0  0.1493928840275937 0.1 0  0.1667376092280033 0.1 0  0.1838026357802664 0.1 0  0.2005924801287244 0.1 0  0.2171115811543574 0.1 0  0.2333643037107681 0.1 0  0.2493549444060462 0.1 0  0.2650877293306821 0.1 0  0.2805668058011438 0.1 0  0.2957962848620976 0.1 0  0.3107801766802674 0.1 0  0.3255224447361181 0.1 0  0.3400269848175519 0.1 0  0.3542976327080778 0.1 0  0.3683381609158136 0.1 0  0.3821522744564845 0.1 0  0.3957436316838916 0.1 0  0.4091158196437086 0.1 0  0.4222723742184605 0.1 0  0.4352167733293057 0.1 0  0.4479524348643424 0.1 0  0.4604827295467524 0.1 0  0.4728109659990664 0.1 0  0.4849404035409129 0.1 0  0.4968742471455402 0.1 0  0.508615651843175 0.1 0  0.520167721130924 0.1 0  0.5315335063628542 0.1 0  0.5427160117228604 0.1 0  0.5537181940261912 0.1 0  0.564542961924507 0.1 0  0.575193173270606 0.1 0  0.5856716438765114 0.1 0  0.5959811458006617 0.1 0  0.6061243988680743 0.1 0  0.6161040893285659 0.1 0  0.6259228503970299 0.1 0  0.6355832809287655 0.1 0  0.6450879281079505 0.1 0  0.6544393102991295 0.1 0  0.663639896558931 0.1 0  0.6726921201956305 0.1 0  0.6815983691630338 0.1 0  0.6903610031396646 0.1 0  0.6989823343332418 0.1 0  0.7074646404270378 0.1 0  0.7158101645005117 0.1 0  0.7240211149852543 0.1 0  0.7320996585612525 0.1 0  0.7400479319727645 0.1 0  0.7478680336617921 0.1 0  0.755562036504958 0.1 0  0.7631319665092091 0.1 0  0.7705798279317605 0.1 0  0.777907588066146 0.1 0  0.7851171851013118 0.1 0  0.7922105226004981 0.1 0  0.7991894774550319 0.1 0  0.8060558928136696 0.1 0  0.812811583201334 0.1 0  0.8194583352091183 0.1 0  0.8259979035038147 0.1 0  0.8324320194413813 0.1 0  0.8387623808293405 0.1 0  0.8449906627004957 0.1 0  0.8511185094880469 0.1 0  0.8571475426008311 0.1 0  0.8630793533568246 0.1 0  0.8689155114558531 0.1 0  0.8746575581239063 0.1 0  0.8803070109173519 0.1 0  0.885865363938836 0.1 0  0.8913340851680313 0.1 0  0.8967146206523592 0.1 0  0.9020083930695622 0.1 0  0.9072167995950768 0.1 0  0.9123412183131177 0.1 0  0.9173830029719022 0.1 0  0.9223434865647732 0.1 0  0.9272239785872722 0.1 0  0.9320257720706087 0.1 0  0.9367501330378739 0.1 0  0.9413983102716995 0.1 0  0.9459715351562933 0.1 0  0.9504710127113115 0.1 0  0.9548979346500661 0.1 0  0.9592534708344373 0.1 0  0.9635387708980176 0.1 0  0.9677549682252325 0.1 0  0.971903177251235 0.1 0  0.9759844952956497 0.1 0  0.9840000000000086 0.1 0  0.987999999999974 0.1 0  0.9919999999999393 0.1 0  0.9959999999999913 0.1 0  1 0.09591793123533533 0  1 0.09133596463859224 0  1 0.08619288104391448 0  1 0.08041996484521211 0  1 0.07394008421771697 0  1 0.06666666567302955 0  1 0.05850252932209174 0  1 0.04933859630113544 0  1 0.03905242821848202 0  1 0.02750659386753798 0  1 0.01454683679239736 0  1.015625 0 0  1.03125 0 0  1.046875 0 0  1.0625 0 0  1.078125 0 0  1.09375 0 0  1.109375 0 0  1.125 0 0  1.140625 0 0  1.15625 0 0  1.171875 0 0  1.1875 0 0  1.203125 0 0  1.21875 0 0  1.234375 0 0  1.25 0 0  1.265625 0 0  1.28125 0 0  1.296875 0 0  1.3125 0 0  1.328125 0 0  1.34375 0 0  1.359375 0 0  1.375 0 0  1.390625 0 0  1.40625 0 0  1.421875 0 0  1.4375 0 0  1.453125 0 0  1.46875 0 0  1.484375 0 0  1.515920751924515 0 0  1.531989369316721 0 0  1.54820720925872 0 0  1.564575665560501 0 0  1.581096138674279 0 0  1.597770029901263 0 0  1.614598783332311 0 0  1.631583831055205 0 0  1.64872661129721 0 0  1.666028606716533 0 0  1.683491276608443 0 0  1.701116134125304 0 0  1.718904673324128 0 0  1.736858414799339 0 0  1.754978895814663 0 0  1.773267661782904 0 0  1.791726281103402 0 0  1.810356325314689 0 0  1.8291593848892 0 0  1.848137076690385 0 0  1.867291007717254 0 0  1.886622833871288 0 0  1.90613418642363 0 0  1.925826753299799 0 0  1.945702199101513 0 0  1.96576223584749 0 0  1.986008569283268 0 0  2.006442931928877 0 0  2.02706707547783 0 0  2.047882750887917 0 0  2.06889175187935 0 0  2.090095860038271 0 0  2.111496891648636 0 0  2.133096679109554 0 0  2.154897066851056 0 0  2.176899916687499 0 0  2.199107102752146 0 0  2.22152053937028 0 0  2.244142122958061 0 0  2.266973806444078 0 0  2.290017523268154 0 0  2.313275249499252 0 0  2.336748971745516 0 0  2.360440702338606 0 0  2.384352453384031 0 0  2.408486280477412 0 0  2.432844240041185 0 0  2.457428414757088 0 0  2.482240901796653 0 0  2.507283830121838 0 0  2.532559332080812 0 0  2.558069568787417 0 0  2.583816724966441 0 0  2.60980299606584 0 0  2.636030600971886 0 0  2.662501790984011 0 0  2.689218818279327 0 0  2.716183964547616 0 0  2.743399548861297 0 0  2.77086788244719 0 0  2.798591312896326 0 0  2.826572223178268 0 0  2.854812990138617 0 0  2.883316031690714 0 0  2.912083780657189 0 0  2.941118704633482 0 0  2.970423276998917 0 0  3 0.02999999999994495 0  3 0.05999999999987042 0  3 0.089999999999783 0  3 0.119999999999701 0  3 0.149999999999619 0  3 0.179999999999692 0  3 0.2099999999997737 0  3 0.2399999999998511 0  3 0.2699999999999185 0  2.970138294777171 0.3 0  2.940375666438236 0.3 0  2.910711782853056 0.3 0  2.881146331305122 0.3 0  2.851678975030285 0.3 0  2.822309388626621 0.3 0  2.793037250095074 0.3 0  2.76386223529133 0.3 0  2.734784017903872 0.3 0  2.705802289276642 0.3 0  2.676916713794697 0.3 0  2.648126987654635 0.3 0  2.619432780406184 0.3 0  2.590833779385199 0.3 0  2.562329669847737 0.3 0  2.533920134950189 0.3 0  2.505604855727852 0.3 0  2.477383539822502 0.3 0  2.449255847639465 0.3 0  2.421221492569094 0.3 0  2.393280152486815 0.3 0  2.36543151914496 0.3 0  2.337675285481809 0.3 0  2.310011142385583 0.3 0  2.282438797441587 0.3 0  2.254957931061538 0.3 0  2.227568248063605 0.3 0  2.200269436651085 0.3 0  2.173061204949961 0.3 0  2.145943251515011 0.3 0  2.118915272469994 0.3 0  2.091976978084957 0.3 0  2.065128060700849 0.3 0  2.038368218849433 0.3 0  2.01169717777258 0.3 0  1.985114624111908 0.3 0  1.958620267850966 0.3 0  1.93221382054972 0.3 0  1.905894991850698 0.3 0  1.879663489459713 0.3 0  1.853519019126419 0.3 0  1.827461291053897 0.3 0  1.801490031354372 0.3 0  1.775604937580312 0.3 0  1.74980572560258 0.3 0  1.724092118631866 0.3 0  1.698463829173586 0.3 0  1.672920575782554 0.3 0  1.647462076974085 0.3 0  1.622088043536933 0.3 0  1.5967981978949 0.3 0  1.571592267767068 0.3 0  1.546469970305736 0.3 0  1.521431023814044 0.3 0  1.496475156230927 0.3 0  1.471602093687753 0.3 0  1.446811560490646 0.3 0  1.422103279101731 0.3 0  1.397476971708191 0.3 0  1.37293238939876 0.3 0  1.348469231419202 0.3 0  1.324087248732772 0.3 0  1.299786165921677 0.3 0  1.275565710847046 0.3 0  1.251425617644257 0.3 0  1.227365618676339 0.3 0  1.203385446174014 0.3 0  1.179484853067473 0.3 0  1.155663548773374 0.3 0  1.131921292279077 0.3 0  1.108257802159295 0.3 0  1.084672829009693 0.3 0  1.061166115303374 0.3 0  1.037737392995421 0.3 0  1.01438640299116 0.3 0  0.991112899770314 0.3 0  0.9679166155523955 0.3 0  0.944797284182564 0.3 0  0.921754678526042 0.3 0  0.8987885143602501 0.3 0  0.8758985548820624 0.3 0  0.8530845484099929 0.3 0  0.8303462351786988 0.3 0  0.8076833651172373 0.3 0  0.7850956864865304 0.3 0  0.7625829601354557 0.3 0  0.7401449314598274 0.3 0  0.717781337993959 0.3 0  0.6954919649675473 0.3 0  0.6732765357561226 0.3 0  0.6511348120768439 0.3 0  0.6290665642016573 0.3 0  0.6070715355430467 0.3 0  0.5851494825775325 0.3 0  0.5633001690203812 0.3 0  0.5415233562273221 0.3 0  0.5198187909431873 0.3 0  0.4981862401387795 0.3 0  0.4766254686134248 0.3 0  0.4551362360485234 0.3 0  0.4337182975262159 0.3 0  0.4123714223228037 0.3 0  0.3910953802377493 0.3 0  0.3698899313205595 0.3 0  0.3487548463710963 0.3 0  0.3276898864081783 0.3 0  0.3066948129116018 0.3 0  0.2857694003037476 0.3 0  0.2649134227095047 0.3 0  0.2441266417321288 0.3 0  0.2234088223399122 0.3 0  0.2027597568977288 0.3 0  0.1821792020676698 0.3 0  0.1616669305402443 0.3 0  0.1412227158799362 0.3 0  0.12084633013886 0.3 0  0.1005375673448281 0.3 0  0.08029618164595353 0.3 0  0.06012194778526769 0.3 0  0.04001466495039718 0.3 0  0.01997408913631205 0.3 0  0 0.2800000000000553 0  0 0.2600000000001105 0  0 0.2400000000001658 0  0 0.2200000000002211 0  0 0.2000000000002764 0  0 0.1800000000002244 0  0 0.1600000000001691 0  0 0.140000000000115 0  0 0.1200000000000564 0  1.13346801534201 0.01255848438672509 0  1.003577645172735 0.09351054173913405 0  0.9777559943702486 0.1034978156913738 0  0.9524533750752109 0.1040889939962738 0  0.9296242411226409 0.1041520033606139 0  0.9046110503652111 0.104409422380137 0  0.8777709649694228 0.1053360318797398 0  0.8483859145648608 0.1061007868330701 0  0.8162363822948977 0.1052777104363292 0  0.7893110024210437 0.1060761643971561 0  0.7587949382612539 0.1067265405088633 0  0.7280603867732535 0.1069398153264939 0  0.6947001989413015 0.1075609887579097 0  0.6590363283767549 0.1076715322596598 0  0.6210028614493155 0.1072970410408442 0  1.1953125 0.01353164693413185 0  1.258193991486058 0.01269648635163345 0  1.3201967268638 0.01407907077719561 0  1.383538555392096 0.01434101079053473 0  1.445312500000001 0.01303671693628424 0  1.508925448095738 0.01398525724792267 0  0.9939176689634008 0.1034638089837981 0  1.120967497222226 0.2796788492172345 0  1.572835902117391 0.01424132418857359 0  1.637573277451887 0.01212536916586023 0  1.709730776795181 0.01466855431023635 0  1.005631976950563 0.07074019818158772 0  1.784944696816299 0.01454708406461822 0  0.5805605730631225 0.1101465090472147 0  1.855621181165637 0.01550931272897607 0  0.5366111276616774 0.1096761308243709 0  1.935200147913231 0.01760344159641829 0  1.214922267975168 0.2799787705802257 0  1.31178773425331 0.2792
[...]
<PointData  Scalars="pressure"> 
<DataArray  type="Float64"  Name="pressure"  format="ascii">1.6112209494711935e-01  -2.1165202956923490e-01  -1.4593276872789077e-01  -9.3720185465916692e-02  1.0140187155401088e-01  0.0000000000000000e+00  0.0000000000000000e+00  1.6116404646383653e-01  1.5519599414066557e-01  1.4936505965990701e-01  1.4362759226669813e-01  1.3798204314397142e-01  1.3242679822035416e-01  1.2696034440339857e-01  1.2158127767224861e-01  1.1628792492472660e-01  1.1107891102977877e-01  1.0595276934754835e-01  1.0090791765764100e-01  9.5942915378483623e-02  9.1056433327098715e-02  8.6246822530628597e-02  8.1512682895963931e-02  7.6852885341449434e-02  7.2265417676874624e-02  6.7749127865130071e-02  6.3302577430077875e-02  5.8923956242647443e-02  5.4612111664102889e-02  5.0365817088514633e-02  4.6182915563784947e-02  4.2062350354614433e-02  3.8002038096470521e-02  3.4000900948900632e-02  3.0057652394304569e-02  2.6170312297877182e-02  2.2337016776371996e-02  1.8556539927297149e-02  1.4827203758472331e-02  1.1146956515269507e-02  7.5147534331949069e-03  3.9281559647914325e-03  3.8574377519175608e-04  -3.1145271174807644e-03  -6.5741942397566635e-03  -9.9938540450973442e-03  -1.3378389376230855e-02  -1.6727170553561845e-02  -2.0043406380069163e-02  -2.3328987927514540e-02  -2.6585765340222934e-02  -2.9814133514494918e-02  -3.3019409639621002e-02  -3.6201582292577028e-02  -3.9363232681800468e-02  -4.2507003448727675e-02  -4.5634584230659810e-02  -4.8748511336440314e-02  -5.1851879643540287e-02  -5.4946255859522210e-02  -5.8033915353175314e-02  -6.1117170493744738e-02  -6.4200911796013907e-02  -6.7284799975757509e-02  -7.0372647603486410e-02  -7.3464919776043650e-02  -7.6571181427815327e-02  -7.9688571144079401e-02  -8.2818239884309114e-02  -8.5966601400698395e-02  -8.9139266440750722e-02  -9.2332887503133995e-02  -9.5557349412930703e-02  -9.8812586525697965e-02  -1.0210016949633387e-01  -1.0542682958534440e-01  -1.0879581281894567e-01  -1.1221109209709237e-01  -1.1567974353606511e-01  -1.1920454430413287e-01  -1.2278258687330026e-01  -1.2642356677307404e-01  -1.3014172807397811e-01  -1.3393331802462505e-01  -1.3780407752642565e-01  -1.4176444397278234e-01  -1.4581902949206463e-01  -1.4997530705651477e-01  -1.5424370937436058e-01  -1.5863793529731610e-01  -1.6316556785201972e-01  -1.6783422496344030e-01  -1.7266642274444749e-01  -1.7767727753905344e-01  -1.8288494166931221e-01  -1.8831472814760941e-01  -1.9399347639458009e-01  -1.9995613230354120e-01  -2.0624725544054859e-01  -2.1292318417526621e-01  -2.2005911886128068e-01  -2.2773212935247752e-01  -2.3614195680384739e-01  -2.4556818306452891e-01  -2.5433930075409966e-01  -2.7788127591327849e-01  -3.5841176228115162e-01  -4.0206876564952782e-01  -3.5542648013482447e-01  -2.8873410616569734e-01  -1.5281453865417705e-01  -1.2409278513322335e-01  -1.1502556947283397e-01  -1.0803471871961368e-01  -1.0332596861251743e-01  -9.9757168390269157e-02  -9.6964908925077364e-02  -9.4728217003045068e-02  -9.3206403212670000e-02  -9.2630094584985084e-02  -9.3145296647339546e-02  -9.4427560615337108e-02  -9.4981380956684264e-02  -9.4683420444670610e-02  -9.3630692108890995e-02  -9.1806055889661953e-02  -8.9086026358582593e-02  -8.5216356245660027e-02  -7.9979080046145221e-02  -7.3287154956330619e-02  -6.5076147684208718e-02  -5.5283600074456346e-02  -4.3972404397327379e-02  -3.1296384452921142e-02  -1.7468414723076517e-02  -2.8564181397417671e-03  1.2146867466990598e-02  2.7131371730177146e-02  4.1678322284596767e-02  5.5408536320219019e-02  6.7858609401927311e-02  7.8962884634873012e-02  8.8399638918336021e-02  9.6092290209030748e-02  1.0205743845265070e-01  1.0638832382644346e-01  1.0910492370201005e-01  1.1033630432718904e-01  1.1034996302294017e-01  1.0927492970815414e-01  1.0730372399070505e-01  1.0462217709494778e-01  9.7716521165856163e-02  9.3751012157190936e-02  8.9614191305418520e-02  8.5372193720966466e-02  8.1194098885635460e-02  7.7084158809790512e-02  7.3135052451653748e-02  6.9393047033434227e-02  6.5883032056120977e-02  6.2633023018609763e-02  5.9635888677955419e-02  5.6917274939886416e-02  5.4477605548943688e-02  5.2300459383060036e-02  5.0384813926680254e-02  4.8716238384068022e-02  4.7273250731488269e-02  4.6048764839399493e-02  4.5021068903133413e-02  4.4160696738669368e-02  4.3468599830006130e-02  4.2912900284402873e-02  4.2476080649941933e-02  4.2147809435090201e-02  4.1901987213721077e-02  4.1737379289532132e-02  4.1615945556763130e-02  4.1543562045079079e-02  4.1498878177162149e-02  4.1474216230606577e-02  4.1457952223072379e-02  4.1436876341014318e-02  4.1399635554441920e-02  4.1337428405347584e-02  4.1243686014027829e-02  4.1108451050714118e-02  4.0925593758289004e-02  4.0688688092464287e-02  4.0392190153720170e-02  4.0032506729996975e-02  3.9606221320906319e-02  3.9110070404588727e-02  3.8542036065594677e-02  3.7900221092111150e-02  3.7181923269044709e-02  3.6386061556299976e-02  3.5513766025657881e-02  3.4562422556758718e-02  3.3525776168813123e-02  3.2421488903696900e-02  3.1226717467944937e-02  2.9964801787970164e-02  2.8612485546038409e-02  2.7194137233533800e-02  2.5697770996716870e-02  2.4115349572851250e-02  2.2475279280133112e-02  2.0749234012168462e-02  1.8962849439273101e-02  1.7106811378764089e-02  1.5182786486132402e-02  1.3188345834815865e-02  1.1134395471797632e-02  9.0219754049409243e-03  6.8456601478076107e-03  4.6280302335444234e-03  2.3430975144516715e-03  0.0000000000000000e+00  0.0000000000000000e+00  0.0000000000000000e+00  0.0000000000000000e+00  0.0000000000000000e+00  0.0000000000000000e+00  0.0000000000000000e+00  0.0000000000000000e+00  0.0000000000000000e+00  2.6638708524520595e-03  5.1552427853273587e-03  7.6328619157003744e-03  1.0054588961426456e-02  1.2426039117763275e-02  1.4749277028143567e-02  1.7026011635411811e-02  1.9255571474835590e-02  2.1436072478499438e-02  2.3567936699416765e-02  2.5648389873943900e-02  2.7677603168913979e-02  2.9652206435374733e-02  3.1571268687954887e-02  3.3430796932368605e-02  3.5228723366591011e-02  3.6963882985047103e-02  3.8627843420719531e-02  4.0216898457092441e-02  4.1725712163525643e-02  4.3148983613842409e-02  4.4478301960276696e-02  4.5710005663273240e-02  4.6836235880542532e-02  4.7841034098779073e-02  4.8725024573697338e-02  4.9474845856451025e-02  5.0075886937669734e-02  5.0519245873489133e-02  5.0795051334492677e-02  5.0888635354057944e-02  5.0789437675568386e-02  5.0500675016794463e-02  5.0004526933141107e-02  4.9273668161861794e-02  4.8352958895067660e-02  4.7200132744229975e-02  4.5844767855376521e-02  4.4282108720202169e-02  4.2533597090110987e-02  4.0610708627524340e-02  3.8528427852316041e-02  3.6317238680187845e-02  3.3996646835296490e-02  3.1591699119991511e-02  2.9129041483490707e-02  2.6633299568161971e-02  2.4129044923100636e-02  2.1637248010794263e-02  1.9173261764519205e-02  1.6751446021244818e-02  1.4379127538505050e-02  1.2058357879739601e-02  9.7863954390140055e-03  7.5561919299717405e-03  5.3554274366418471e-03  3.1669542516648448e-03  9.8596123374146481e-04  -1.2312120961634524e-03  -3.5007010704089024e-03  -5.8464434773460531e-03  -8.3087911002586359e-03  -1.0914697629239805e-02  -1.3710235011965983e-02  -1.6730982013018078e-02  -2.0013869540777923e-02  -2.3589905117924911e-02  -2.7478573981964741e-02  -3.1688501128813065e-02  -3.6202410088882968e-02  -4.0970299018816408e-02  -4.5940629532588984e-02  -5.0950226547348425e-02  -5.5879277823229594e-02  -6.0507576789166899e-02  -6.4589960777709288e-02  -6.7933962273424547e-02  -7.0353054441398818e-02  -7.1787610795813223e-02  -7.2273769188825387e-02  -7.1623409076086580e-02  -7.0047686891426653e-02  -6.7599494373687369e-02  -6.4527074747227756e-02  -6.0815434537171344e-02  -5.6540524825579162e-02  -5.1869254825122245e-02  -4.6856648639412773e-02  -4.1530364453661199e-02  -3.5982559620976726e-02  -3.0232863089713083e-02  -2.4354048147770660e-02  -1.8360385656168928e-02  -1.2261051761002176e-02  -6.1052737827161337e-03  1.0007214137785692e-04  6.3504940496928045e-03  1.2629918041344848e-02  1.8924740183768832e-02  2.5228451054277911e-02  3.1539006742423679e-02  3.7848821265840576e-02  4.4157061213281293e-02  5.0455425288364102e-02  5.6745675425733624e-02  6.3023833976391053e-02  6.9288464149545162e-02  7.5538748459785962e-02  8.1772969905079401e-02  8.7990527388806583e-02  9.4191019106313945e-02  1.0037370749045978e-01  1.0653815276377669e-01  1.1268409310012641e-01  1.1881130355323820e-01  1.2491938751901627e-01  1.3100845371132794e-01  1.3707831251080679e-01  1.4312882076411970e-01  1.4916001459849038e-01  1.5517176008639261e-01  1.6116388730073028e-01  1.6116215416363708e-01  1.6115790148947118e-01  1.6115121158201223e-01  1.6114307800930072e-01  1.6113493598913328e-01  1.6112823205670390e-01  1.6112395111316283e-01  1.6112222443007393e-01  -7.5992938796817969e-02  -1.2703470659488048e-01  -2.7926905790261503e-01  -2.1740185538824880e-01  -1.8630438483407427e-01  -1.6137313722736146e-01  -1.4037240535368301e-01  -1.2148566481729389e-01  -1.0400251253289540e-01  -9.1185012736115401e-02  -7.8023389673029409e-02  -6.5834761088366098e-02  -5.3481095226945614e-02  -4.0984609517781850e-02  -2.8229493401837419e-02  -3.8062426904699978e-02  1.8923869691479796e-02  7.1948649225180586e-02  1.0313561711535740e-01  1.0891525575967193e-01  9.8805099026612331e-02  -2.6592086810151072e-01  -3.7304216911477742e-02  8.3131243757919915e-02  6.8218051262829288e-02  5.5923999935093005e-02  -1.0206688513087181e-01  4.8049611208490051e-02  -1.5123401026573073e-02  4.4140275854007906e-02  -1.2219492786191485e-03  4.2262959501357007e-02  -2.1181147421664433e-02  -9.2656789559003323e-03  4.1664911070287219e-02  -2.2175855964729215e-05  1.2977853189178304e-02  1.0927826185884115e-02  4.1547988282945612e-02  2.8105739342539002e-02  -8.9561437224321153e-02  4.1111013124638641e-02  2.2767563549459788e-02  -5.2544361563637780e-02  4.3682687533292408e-02  3.9882199014800002e-02  3.7216323682397828e-02  6.1298799213510592e-02  4.3102486133788920e-02  3.7535627941985179e-02  4.7620431109673261e-02  7.8657443080987918e-02  -6.5146451769181907e-02  3.4122892683520555e-02  5.0074500305904372e-02  -7.1416808906387047e-02  5.0652735649649977e-02  2.9308150628673025e-02  -6.8516936711582863e-02  9.8901151263344145e-02  1.1293513292221576e-01  3.0196229475349685e-02  2.4903220244792603e-02  1.9645654861392487e-02  4.9585711529145496e-02  -5.8666914169355655e-02  4.6040307491841161e-02  -2.4163801013199046e-01  -3.9064034079270664e-02  4.2293571938045983e-02  1.3039848859859077e-01  -2.1355958325607410e-02  1.4179115672665039e-02  3.6022241928992962e-02  -2.8679134343770995e-03  2.2248541091793469e-02  3.0529618443267448e-02  5.3604535610470128e-02  2.4538048898648981e-02  7.2471181498723142e-02  9.1197579828666483e-02  1.8088847610317343e-02  1.2275946115429726e-01  2.2379200911298606e-03  1.5556623961591184e-01  -9.4702659044981638e-02  1.1384178812596487e-02  7.7998007767417525e-03  1.4055461576835926e-01  -1.1104414435664725e-01  -9.3328442841370332e-02  -2.8657203973089525e-02  -4.9193132551087211e-02  9.0209106997392961e-03  3.4372641526005852e-02  1.4085618687809637e-01  1.5312913879045284e-02  4.4391104169771425e-03  -4.4148585567862940e-03  -1.4715324538060138e-02  8.8945700415046902e-02  4.8115803349046658e-02  6.9716445126779436e-02  1.0341922434764214e-01  3.9310813356874766e-02  3.1868284793032692e-02  5.1922104325242975e-02  3.5874838328530584e-02  3.8872494285528636e-02  3.6247955706437435e-02  4.0617844305869122e-02  4.1400706592019582e-02  4.1598882516537879e-02  4.1848438935585125e-02  9.1331158164953810e-02  2.0436825285789061e-02  4.2971023480776860e-02  4.5795393076999570e-02  5.7253357745985249e-03  5.1401567522151546e-02  6.1249076672259928e-02  7.4932072352225765e-02  1.8337212633792066e-03  -8.6819455684673669e-03  -2.1235775009449509e-02  1.5589304992828990e-01  -3.4311899171001303e-02  -4.7253351233771036e-02  -5.9658601214579811e-02  -7.2148615756014667e-02  -8.4599336758002200e-02  -9.7213319868121886e-02  -5.9590763201703444e-02  -1.1418529948923602e-01  -1.3233806697646766e-01  -1.5254204810146479e-01  -1.1017596058329372e-02  -1.7591476916435103e-01  9.0632083827917251e-02  4.8608289564348255e-02  1.0835834023314281e-01  1.0523909276304416e-01  -2.0400877519479671e-01  -3.6280678907691122e-01  2.3450139318656250e-03  1.5542044523007947e-01  6.2991649862058369e-03  -9.4020747230739860e-02  1.5613807839739224e-01  1.8442821728425229e-03  1.5206820281930472e-01  -9.3956033344186327e-02  -9.3488515691672935e-02  -9.2816282247433810e-02  -9.3843538897744994e-02  -9.3224569020680270e-02  -9.4741916297875636e-02  -9.3900947254110953e-02  -9.5665060143088135e-02  -9.4603600834065812e-02  -9.6123174864766195e-02  -9.4899079903237135e-02  -9.5869787986724866e-02  -9.4360732872747377e-02  -9.5041467825229986e-02  -9.3182103859518250e-02  -9.3858209677203264e-02  -9.1219569549768273e-02  -9.1827662690099690e-02  -8.7966690792486535e-02  -8.7790015740327632e-02  -8.2530207609121858e-02  -9.2564342570923178e-02  -8.3245054811291699e-02  -7.6331202035292450e-02  -8.7550796367089359e-02  -9.3723614571689359e-02  -7.6689674211093586e-02  -6.9103828782573817e-02  -6.9057743415433484e-02  -6.0633693948993955e-02  -5.9847178348336694e-02  -5.1273464855763479e-02  -4.9365319450560732e-02  -4.1483693082040952e-02  -3.7824063033032672e-02  -3.0314020471377469e-02  -2.5359057754289708e-02  -1.9723116670913737e-02  -1.3029677273888604e-02  -9.4790606131206698e-03  -1.0311364594895406e-03  -2.3460479912250679e-05  9.9721761894001597e-03  8.1979207874335203e-03  1.9712040145946092e-02  1.5394150713918198e-02  2.7909895394263577e-02  2.0901430731527046e-02  3.4346787832377816e-02  2.5267991248389025e-02  3.8306921573759999e-02  2.8144988606857137e-02  4.3329765325134065e-02  -8.7116680887412853e-02  -9.4376436981865042e-02  2.9487827628383898e-02  4.3779239165340419e-02  3.0802499787995066e-02  4.4620489015753405e-02  3.0449632041608325e-02  4.4285079336256174e-02  3.0006824528678300e-02  4.3384300976530475e-02  -6.7778964390736454e-02  2.9585758248547499e-02  4.2103217663756839e-02  2.6910197741239626e-02  4.0220054222140512e-02  2.8111396332588783e-02  3.9063582788099904e-02  -8.6134567686655325e-02  -9.5861164314993114e-02  -9.6369318895314734e-02  2.7350345349154436e-02  3.7659011240304317e-02  2.7035176252052328e-02  3.6403848725238969e-02  2.6821198533724708e-02  3.5360242915385073e-02  -1.0011429549009329e-01  2.6869718833727983e-02  3.4582784799487780e-02  -4.3370277745409323e-02  2.7108539125462842e-02  3.4049951652821119e-02  2.7594736738471033e-02  3.3840577291766247e-02  2.8370139291282230e-02  3.3809512431747055e-02  -9.2141602148825982e-02  -1.5794252092228948e-02  2.9232077325980509e-02  3.4079080583688144e-02  -8.4429684835447591e-02  -9.3689210384419269e-02  -7.5855313679988282e-02  5.3404238212472858e-03  3.0269694401192565e-02  3.4594460827548960e-02  3.1377250093548567e-02  3.5258459500469158e-02  3.2645896016587614e-02  3.5969840126239189e-02  5.0881295743103884e-02  3.9481780712611519e-02  4.4573731748955209e-02  5.7388672276701636e-02  3.4001536827811867e-02  3.6840306543900810e-02  3.9360846102284845e-02  3.9706439590562755e-02  3.7812039120741055e-02  4.0174906918757719e-02  3.8872588002722121e-02  4.0774110761809666e-02  3.9937033823583074e-02  4.1419517198592617e-02  4.1004105618163110e-02  4.2133783341519043e-02  4.2059661378116939e-02  4.2840245109264714e-02  4.3074079311170875e-02  4.3563743634715629e-02  4.4041593944198008e-02  4.4235256064129806e-02  4.4919815951615240e-02  4.4876930259565656e-02  4.5731734045416576e-02  4.5445881948674258e-02  4.6456567814908645e-02  4.5962424427219449e-02  5.8118576973540656e-02  1.5544637124140621e-02  4.7072197059567659e-02  4.6387304510125051e-02  4.7544358710145201e-02  4.6729501053991082e-02  -5.7262232182803637e-02  3.2898681378048189e-02  4.7910625590641367e-02  4.6963324958005231e-02  -4.1548873120959614e-03  2.0007534806577142e-02  -8.1011539081538922e-02  -9.0599126373665101e-02  -1.0664439175945306e-01  -1.0164129260460554e-01  -1.1814377051110656e-01  -1.1256101683269541e-01  -1.3348992685163044e-01  -1.2365982474437263e-01  -1.4254468781698007e-01  -1.3227763474263873e-01  -1.5293838940865587e-01  -1.3914879089891008e-01  -1.5705387828482753e-01  -1.4299509837426574e-01  -1.5875044978535782e-01  -1.4472063611299646e-01  -1.5773858100816288e-01  -1.4415147539039269e-01  -1.5484701902753506e-01  -1.4199644040889065e-01  -1.5062115245889138e-01  -1.3869956264943900e-01  -1.4571532752213517e-01  -1.3477630624218079e-01  -1.4040988973144053e-01  -1.3050849031468098e-01  -1.3436115891669090e-01  -1.2524375503778598e-01  -1.2044891072361091e-01  -1.1660766400056231e-01  -1.2066907898937992e-01  -1.1266796441878091e-01  -1.1651215992901938e-01  -1.0876805658960929e-01  -1.1154917836592362e-01  -1.0455838271129569e-01  -1.2730229485635383e-01  -1.1049107482884470e-01  -1.2932395771862507e-01  -1.0681967107025495e-01  -1.0027109136071140e-01  -9.7240453990013645e-02  -9.3612401845130797e-02  -9.5955745283760496e-02  -8.9958086573936488e-02  -9.1576335295148484e-02  -8.6079970379306009e-02  -8.7204511098714771e-02  -8.1970867955275153e-02  -8.6744827515212494e-02  -1.3449855776357011e-01  -1.7221765461582700e-01  -8.2903719384883903e-02  -7.7878790771543346e-02  -7.6660992388129096e-02  -7.2799326535819067e-02  -7.3782268843331861e-02  -6.9032777556491190e-02  -6.9594671497559615e-02  -6.5142708090712265e-02  -1.7335819371543615e-01  -6.7710826559522444e-02  -6.5425960125938293e-02  -6.1267743283203641e-02  -1.6302672516822811e-01  -6.1381909572544947e-02  -5.7267007310022031e-02  -5.7289104047011090e-02  -5.3107223058952407e-02  -5.3170707471451237e-02  -4.9062885452790313e-02  -4.8812763695910789e-02  -4.4930538783049784e-02  -4.5017547894133099e-02  -4.1008442386775729e-02  -4.0929096531699093e-02  -3.6952964620100275e-02  -3.6995218135190917e-02  -3.3050515608399701e-02  -3.2834398957640350e-02  -2.9048277056364553e-02  -2.8738029846548684e-02  -2.5013132608224461e-02  -9.6147908517172267e-02  -1.2415855594203486e-01  -1.4984929095850280e-01  -2.4692947734289067e-02  -2.0980678535113557e-02  -2.1272640506537089e-02  -1.7151959185053880e-02  -1.6769793218295064e-02  -1.3011315304777697e-02  -1.7431655938751883e-02  4.8190114975410522e-02  4.7116643713381375e-02  4.8330292146639177e-02  4.7152391218814156e-02  4.8337878994431392e-02  4.7081991231678839e-02  -9.7366923241854489e-02  1.8395025796883360e-02  -9.6280855334791776e-02  -1.2510069982111406e-02  -8.8689904728913808e-03  -1.1315744189067198e-01  4.2966482645530234e-02  4.4898257286314518e-02  4.2373954957111486e-02  4.8219334513380799e-02  4.6902875690999497e-02  4.5624431768305641e-02  4.5413374293587550e-02  4.6619550698228950e-02  4.5097344818964963e-02  4.6218542654861264e-02  4.4679194994315150e-02  4.5723144485010421e-02  4.4189720135804626e-02  4.5121543287381202e-02  4.3592601902936810e-02  4.4428310852969277e-02  4.2906820234013224e-02  4.3652383097224919e-02  4.2123360685509356e-02  4.2772899592686646e-02  4.1252247075469921e-02  4.1800550699417245e-02  4.0285242643075488e-02  4.0719564691727599e-02  3.9230467601747407e-02  3.9557211971373810e-02  3.8089123747138416e-02  3.8325686473243054e-02  3.6862761173295684e-02  3.7003284301476758e-02  3.5558408741421764e-02  3.5559431013807534e-02  3.4163522943652762e-02  3.4118099788672959e-02  3.2703563222568253e-02  4.5722990557940428e-02  -3.3155549496588395e-02  -7.4327488083773582e-02  -8.1775030969557932e-03  -4.5934437157647010e-03  -5.2488268844730415e-03  -8.6299721767310470e-04  -1.5524550619597792e-03  2.8997809181011717e-03  3.5252551127449520e-03  7.2788515420560479e-03  8.0733350608723324e-03  1.1770656280600787e-02  1.1072213822170574e-02  1.5531970409584553e-02  1.6128897290231675e-02  1.9975920582631580e-02  2.0598020268948577e-02  2.4458502362845670e-02  2.3821315354295599e-02  2.8365848772416050e-02  2.8988269297937144e-02  3.2904756413281291