<?xml version="1.0"?>
<VTKFile type="UnstructuredGrid"  version="0.1"  >
<UnstructuredGrid>
<Piece  NumberOfPoints="2886" NumberOfCells="5412">
<Points>
<DataArray  type="Float64"  NumberOfComponents="3"  format="ascii">0 0.1 0  0.98 0.1 0  1 0.1 0  1 0 0  1.5 0 0  3 0 0  3 0.3 0  0 0.3 0  0.01975375321854102 0.1 0  0.03918897458218897 0.1 0  0.05831079002627837 0.1 0  0.07712425666319796 0.1 0  0.0956343475259058 0.1 0  0.1138459546796227 0.1 0  0.1317638870668193 0.1 0  0.1493928840275937 0.1 0  0.1667376092280033 0.1 0  0.1838026357802664 0.1 0  0.2005924801287244 0.1 0  0.2171115811543574 0.1 0  0.2333643037107681 0.1 0  0.2493549444060462 0.1 0  0.2650877293306821 0.1 0  0.2805668058011438 0.1 0  0.2957962848620976 0.1 0  0.3107801766802674 0.1 0  0.3255224447361181 0.1 0  0.3400269848175519 0.1 0  0.3542976327080778 0.1 0  0.3683381609158136 0.1 0  0.3821522744564845 0.1 0  0.3957436316838916 0.1 0  0.4091158196437086 0.1 0  0.4222723742184605 0.1 0  0.4352167733293057 0.1 0  0.4479524348643424 0.1 0  0.4604827295467524 0.1 0  0.4728109659990664 0.1 0  0.4849404035409129 0.1 0  0.4968742471455402 0.1 0  0.508615651843175 0.1 0  0.520167721130924 0.1 0  0.5315335063628542 0.1 0  0.5427160117228604 0.1 0  0.5537181940261912 0.1 0  0.564542961924507 0.1 0  0.575193173270606 0.1 0  0.5856716438765114 0.1 0  0.5959811458006617 0.1 0  0.6061243988680743 0.1 0  0.6161040893285659 0.1 0  0.6259228503970299 0.1 0  0.6355832809287655 0.1 0  0.6450879281079505 0.1 0  0.6544393102991295 0.1 0  0.663639896558931 0.1 0  0.6726921201956305 0.1 0  0.6815983691630338 0.1 0  0.6903610031396646 0.1 0  0.6989823343332418 0.1 0  0.7074646404270378 0.1 0  0.7158101645005117 0.1 0  0.7240211149852543 0.1 0  0.7320996585612525 0.1 0  0.7400479319727645 0.1 0  0.7478680336617921 0.1 0  0.755562036504958 0.1 0  0.7631319665092091 0.1 0  0.7705798279317605 0.1 0  0.777907588066146 0.1 0  0.7851171851013118 0.1 0  0.7922105226004981 0.1 0  0.7991894774550319 0.1 0  0.8060558928136696 0.1 0  0.812811583201334 0.1 0  0.8194583352091183 0.1 0  0.8259979035038147 0.1 0  0.8324320194413813 0.1 0  0.8387623808293405 0.1 0  0.8449906627004957 0.1 0  0.8511185094880469 0.1 0  0.8571475426008311 0.1 0  0.8630793533568246 0.1 0  0.8689155114558531 0.1 0  0.8746575581239063 0.1 0  0.8803070109173519 0.1 0  0.885865363938836 0.1 0  0.8913340851680313 0.1 0  0.8967146206523592 0.1 0  0.9020083930695622 0.1 0  0.9072167995950768 0.1 0  0.9123412183131177 0.1 0  0.9173830029719022 0.1 0  0.9223434865647732 0.1 0  0.9272239785872722 0.1 0  0.9320257720706087 0.1 0  0.9367501330378739 0.1 0  0.9413983102716995 0.1 0  0.9459715351562933 0.1 0  0.9504710127113115 0.1 0  0.9548979346500661 0.1 0  0.9592534708344373 0.1 0  0.9635387708980176 0.1 0  0.9677549682252325 0.1 0  0.971903177251235 0.1 0  0.9759844952956497 0.1 0  0.9840000000000086 0.1 0  0.987999999999974 0.1 0  0.9919999999999393 0.1 0  0.9959999999999913 0.1 0  1 0.09591793123533533 0  1 0.09133596463859224 0  1 0.08619288104391448 0  1 0.08041996484521211 0  1 0.07394008421771697 0  1 0.06666666567302955 0  1 0.05850252932209174 0  1 0.04933859630113544 0  1 0.03905242821848202 0  1 0.02750659386753798 0  1 0.01454683679239736 0  1.015625 0 0  1.03125 0 0  1.046875 0 0  1.0625 0 0  1.078125 0 0  1.09375 0 0  1.109375 0 0  1.125 0 0  1.140625 0 0  1.15625 0 0  1.171875 0 0  1.1875 0 0  1.203125 0 0  1.21875 0 0  1.234375 0 0  1.25 0 0  1.265625 0 0  1.28125 0 0  1.296875 0 0  1.3125 0 0  1.328125 0 0  1.34375 0 0  1.359375 0 0  1.375 0 0  1.390625 0 0  1.40625 0 0  1.421875 0 0  1.4375 0 0  1.453125 0 0  1.46875 0 0  1.484375 0 0  1.515920751924515 0 0  1.531989369316721 0 0  1.54820720925872 0 0  1.564575665560501 0 0  1.581096138674279 0 0  1.597770029901263 0 0  1.614598783332311 0 0  1.631583831055205 0 0  1.64872661129721 0 0  1.666028606716533 0 0  1.683491276608443 0 0  1.701116134125304 0 0  1.718904673324128 0 0  1.736858414799339 0 0  1.754978895814663 0 0  1.773267661782904 0 0  1.791726281103402 0 0  1.810356325314689 0 0  1.8291593848892 0 0  1.848137076690385 0 0  1.867291007717254 0 0  1.886622833871288 0 0  1.90613418642363 0 0  1.925826753299799 0 0  1.945702199101513 0 0  1.96576223584749 0 0  1.986008569283268 0 0  2.006442931928877 0 0  2.02706707547783 0 0  2.047882750887917 0 0  2.06889175187935 0 0  2.090095860038271 0 0  2.111496891648636 0 0  2.133096679109554 0 0  2.154897066851056 0 0  2.176899916687499 0 0  2.199107102752146 0 0  2.22152053937028 0 0  2.244142122958061 0 0  2.266973806444078 0 0  2.290017523268154 0 0  2.313275249499252 0 0  2.336748971745516 0 0  2.360440702338606 0 0  2.384352453384031 0 0  2.408486280477412 0 0  2.432844240041185 0 0  2.457428414757088 0 0  2.482240901796653 0 0  2.507283830121838 0 0  2.532559332080812 0 0  2.558069568787417 0 0  2.583816724966441 0 0  2.60980299606584 0 0  2.636030600971886 0 0  2.662501790984011 0 0  2.689218818279327 0 0  2.716183964547616 0 0  2.743399548861297 0 0  2.77086788244719 0 0  2.798591312896326 0 0  2.826572223178268 0 0  2.854812990138617 0 0  2.883316031690714 0 0  2.912083780657189 0 0  2.941118704633482 0 0  2.970423276998917 0 0  3 0.02999999999994495 0  3 0.05999999999987042 0  3 0.089999999999783 0  3 0.119999999999701 0  3 0.149999999999619 0  3 0.179999999999692 0  3 0.2099999999997737 0  3 0.2399999999998511 0  3 0.2699999999999185 0  2.970138294777171 0.3 0  2.940375666438236 0.3 0  2.910711782853056 0.3 0  2.881146331305122 0.3 0  2.851678975030285 0.3 0  2.822309388626621 0.3 0  2.793037250095074 0.3 0  2.76386223529133 0.3 0  2.734784017903872 0.3 0  2.705802289276642 0.3 0  2.676916713794697 0.3 0  2.648126987654635 0.3 0  2.619432780406184 0.3 0  2.590833779385199 0.3 0  2.562329669847737 0.3 0  2.533920134950189 0.3 0  2.505604855727852 0.3 0  2.477383539822502 0.3 0  2.449255847639465 0.3 0  2.421221492569094 0.3 0  2.393280152486815 0.3 0  2.36543151914496 0.3 0  2.337675285481809 0.3 0  2.310011142385583 0.3 0  2.282438797441587 0.3 0  2.254957931061538 0.3 0  2.227568248063605 0.3 0  2.200269436651085 0.3 0  2.173061204949961 0.3 0  2.145943251515011 0.3 0  2.118915272469994 0.3 0  2.091976978084957 0.3 0  2.065128060700849 0.3 0  2.038368218849433 0.3 0  2.01169717777258 0.3 0  1.985114624111908 0.3 0  1.958620267850966 0.3 0  1.93221382054972 0.3 0  1.905894991850698 0.3 0  1.879663489459713 0.3 0  1.853519019126419 0.3 0  1.827461291053897 0.3 0  1.801490031354372 0.3 0  1.775604937580312 0.3 0  1.74980572560258 0.3 0  1.724092118631866 0.3 0  1.698463829173586 0.3 0  1.672920575782554 0.3 0  1.647462076974085 0.3 0  1.622088043536933 0.3 0  1.5967981978949 0.3 0  1.571592267767068 0.3 0  1.546469970305736 0.3 0  1.521431023814044 0.3 0  1.496475156230927 0.3 0  1.471602093687753 0.3 0  1.446811560490646 0.3 0  1.422103279101731 0.3 0  1.397476971708191 0.3 0  1.37293238939876 0.3 0  1.348469231419202 0.3 0  1.324087248732772 0.3 0  1.299786165921677 0.3 0  1.275565710847046 0.3 0  1.251425617644257 0.3 0  1.227365618676339 0.3 0  1.203385446174014 0.3 0  1.179484853067473 0.3 0  1.155663548773374 0.3 0  1.131921292279077 0.3 0  1.108257802159295 0.3 0  1.084672829009693 0.3 0  1.061166115303374 0.3 0  1.037737392995421 0.3 0  1.01438640299116 0.3 0  0.991112899770314 0.3 0  0.9679166155523955 0.3 0  0.944797284182564 0.3 0  0.921754678526042 0.3 0  0.8987885143602501 0.3 0  0.8758985548820624 0.3 0  0.8530845484099929 0.3 0  0.8303462351786988 0.3 0  0.8076833651172373 0.3 0  0.7850956864865304 0.3 0  0.7625829601354557 0.3 0  0.7401449314598274 0.3 0  0.717781337993959 0.3 0  0.6954919649675473 0.3 0  0.6732765357561226 0.3 0  0.6511348120768439 0.3 0  0.6290665642016573 0.3 0  0.6070715355430467 0.3 0  0.5851494825775325 0.3 0  0.5633001690203812 0.3 0  0.5415233562273221 0.3 0  0.5198187909431873 0.3 0  0.4981862401387795 0.3 0  0.4766254686134248 0.3 0  0.4551362360485234 0.3 0  0.4337182975262159 0.3 0  0.4123714223228037 0.3 0  0.3910953802377493 0.3 0  0.3698899313205595 0.3 0  0.3487548463710963 0.3 0  0.3276898864081783 0.3 0  0.3066948129116018 0.3 0  0.2857694003037476 0.3 0  0.2649134227095047 0.3 0  0.2441266417321288 0.3 0  0.2234088223399122 0.3 0  0.2027597568977288 0.3 0  0.1821792020676698 0.3 0  0.1616669305402443 0.3 0  0.1412227158799362 0.3 0  0.12084633013886 0.3 0  0.1005375673448281 0.3 0  0.08029618164595353 0.3 0  0.06012194778526769 0.3 0  0.04001466495039718 0.3 0  0.01997408913631205 0.3 0  0 0.2800000000000553 0  0 0.2600000000001105 0  0 0.2400000000001658 0  0 0.2200000000002211 0  0 0.2000000000002764 0  0 0.1800000000002244 0  0 0.1600000000001691 0  0 0.140000000000115 0  0 0.1200000000000564 0  1.13346801534201 0.01255848438672509 0  1.003577645172735 0.09351054173913405 0  0.9777559943702486 0.1034978156913738 0  0.9524533750752109 0.1040889939962738 0  0.9296242411226409 0.1041520033606139 0  0.9046110503652111 0.104409422380137 0  0.8777709649694228 0.1053360318797398 0  0.8483859145648608 0.1061007868330701 0  0.8162363822948977 0.1052777104363292 0  0.7893110024210437 0.1060761643971561 0  0.7587949382612539 0.1067265405088633 0  0.7280603867732535 0.1069398153264939 0  0.6947001989413015 0.1075609887579097 0  0.6590363283767549 0.1076715322596598 0  0.6210028614493155 0.1072970410408442 0  1.1953125 0.01353164693413185 0  1.258193991486058 0.01269648635163345 0  1.3201967268638 0.01407907077719561 0  1.383538555392096 0.01434101079053473 0  1.445312500000001 0.01303671693628424 0  1.508925448095738 0.01398525724792267 0  0.9939176689634008 0.1034638089837981 0  1.120967497222226 0.2796788492172345 0  1.572835902117391 0.01424132418857359 0  1.637573277451887 0.01212536916586023 0  1.709730776795181 0.01466855431023635 0  1.005631976950563 0.07074019818158772 0  1.784944696816299 0.01454708406461822 0  0.5805605730631225 0.1101465090472147 0  1.855621181165637 0.01550931272897607 0  0.5366111276616774 0.1096761308243709 0  1.935200147913231 0.01760344159641829 0  1.214922267975168 0.2799787705802257 0  1.31178773425331 0.2792
[...]
<PointData  Scalars="pressure"> 
<DataArray  type="Float64"  Name="pressure"  format="ascii">1.0019060304837783e-02  -1.0960936210386261e+00  2.5767488944910327e-03  5.0581914592724197e-03  1.2842879348998970e-02  0.0000000000000000e+00  0.0000000000000000e+00  1.0100219978449593e-02  4.0929767634839140e-03  -1.7383398608679017e-03  -7.4767540093312202e-03  -1.3123868211851455e-02  -1.8681416979200990e-02  -2.4150998239084454e-02  -2.9533964240639601e-02  -3.4832284294953553e-02  -4.0047317942986126e-02  -4.5180623538982098e-02  -5.0234119759978893e-02  -5.5209339056803218e-02  -6.0107646967455783e-02  -6.4931161148116659e-02  -6.9681488212674503e-02  -7.4359542101740977e-02  -7.8968379322251467e-02  -8.3509090073065215e-02  -8.7983458138166298e-02  -9.2394127679854901e-02  -9.6742401710198392e-02  -1.0102939206536320e-01  -1.0525889079487458e-01  -1.0943180793247129e-01  -1.1355160588006499e-01  -1.1761977753616622e-01  -1.2163738867703987e-01  -1.2560823834685558e-01  -1.2953525960020937e-01  -1.3342009314504455e-01  -1.3726547944835576e-01  -1.4107504297569232e-01  -1.4485030874083185e-01  -1.4859570941114589e-01  -1.5231344949625658e-01  -1.5600768189944020e-01  -1.5968153157625564e-01  -1.6333376860848578e-01  -1.6697655259931118e-01  -1.7060827776522985e-01  -1.7423321746203002e-01  -1.7785802210651577e-01  -1.8148620086260123e-01  -1.8511481896301413e-01  -1.8876027698697515e-01  -1.9242042915575078e-01  -1.9610105144507653e-01  -1.9980826478878091e-01  -2.0354679066759429e-01  -2.0732226663526973e-01  -2.1114219716332003e-01  -2.1501150762781257e-01  -2.1893562026978627e-01  -2.2292026821451313e-01  -2.2697947536243987e-01  -2.3111237898864206e-01  -2.3533017811415971e-01  -2.3963553235957619e-01  -2.4405106190566545e-01  -2.4857893640647585e-01  -2.5321683150020458e-01  -2.5798558554136819e-01  -2.6290457930006189e-01  -2.6796662621263267e-01  -2.7320037961132865e-01  -2.7861581650411205e-01  -2.8421486431053650e-01  -2.9002341057280867e-01  -2.9605710651150347e-01  -3.0233261394209671e-01  -3.0888408705929937e-01  -3.1571977499695347e-01  -3.2285207799031584e-01  -3.3029826037857524e-01  -3.3814225836897122e-01  -3.4637630194792424e-01  -3.5503104839863825e-01  -3.6416702378398913e-01  -3.7381653150503930e-01  -3.8403627292145570e-01  -3.9488195666030990e-01  -4.0646004619273429e-01  -4.1883369567221851e-01  -4.3207523287863225e-01  -4.4635157105024409e-01  -4.6180246992505164e-01  -4.7860542344805806e-01  -4.9699972907379408e-01  -5.1727871988376861e-01  -5.3982654892464155e-01  -5.6517435991164178e-01  -5.9405917718299361e-01  -6.2752642408437598e-01  -6.6703413386339627e-01  -7.1546369917379427e-01  -7.7705601806743141e-01  -8.5901926412655183e-01  -1.0005885659365905e+00  -2.2726250816504598e+00  -1.9840169002658945e+00  -1.3582684005007504e+00  -7.7313967897179747e-01  -1.6050106217552906e-01  -6.3189681756199156e-02  -4.5109477286108930e-02  -2.7858766067588615e-02  -1.7108693636501641e-02  -9.6374300183038244e-03  -4.1925876269157608e-03  1.7968024000797984e-04  3.5845331956414739e-03  5.7075218085716724e-03  5.8667178322525486e-03  4.0668927947040247e-03  4.3154839246844906e-03  6.5840642743273401e-03  1.0859925567557648e-02  1.7155759733555206e-02  2.5286993913450958e-02  3.4931606969301296e-02  4.5597591957246254e-02  5.6460047801452723e-02  6.6763506604988088e-02  7.5874130018493469e-02  8.3273486287514326e-02  8.8700590400880019e-02  9.2030949244557458e-02  9.3260139739878706e-02  9.2576682391571949e-02  9.0226122797541553e-02  8.6482448828101133e-02  8.1693569320393802e-02  7.6112935577910518e-02  6.9943843632906968e-02  6.3607040493872016e-02  5.7095703498731942e-02  5.0727792542523527e-02  4.4588027059926996e-02  3.8767815414904531e-02  3.3321708474025151e-02  2.8309108391403961e-02  2.3743638242891264e-02  1.9653493181822489e-02  1.6023879953996158e-02  1.0044698015377697e-02  7.6485632776110693e-03  5.6509504760597568e-03  4.0043326923732397e-03  2.6983981970833569e-03  1.7528828089166785e-03  1.0334087593567324e-03  5.9732960239292543e-04  4.2483474134450447e-04  4.6891573098969128e-04  6.8640585730200918e-04  1.0773361813327549e-03  1.6236330441503455e-03  2.2938379683600687e-03  3.0740133270798003e-03  3.9490016537234692e-03  4.8932717702880081e-03  5.9010833386345185e-03  6.9576710199729412e-03  8.0436856107185019e-03  9.1552046638971943e-03  1.0275498341065449e-02  1.1392709127851256e-02  1.2506658976462713e-02  1.3597266742413811e-02  1.4670645573571710e-02  1.5704009126748613e-02  1.6701821077059278e-02  1.7653681860802017e-02  1.8557316973383569e-02  1.9408945690620998e-02  2.0201345365347251e-02  2.0931438337233689e-02  2.1595806737505576e-02  2.2191919292497912e-02  2.2716559972750492e-02  2.3167388603173456e-02  2.3542595014954419e-02  2.3839999188592031e-02  2.4059070003709361e-02  2.4198883622640357e-02  2.4258297713456490e-02  2.4236978728911483e-02  2.4134822569170621e-02  2.3950658945155044e-02  2.3684916685350603e-02  2.3340254344025299e-02  2.2914651915483641e-02  2.2405628800844499e-02  2.1828122504867417e-02  2.1165036879810657e-02  2.0436232529355326e-02  1.9624383522895562e-02  1.8749614847346642e-02  1.7803098639175317e-02  1.6779351168099841e-02  1.5702144052578075e-02  1.4549227335921700e-02  1.3341888568534587e-02  1.2073309230009238e-02  1.0745142107885302e-02  9.3579121866585041e-03  7.9192059993185848e-03  6.4320938262262132e-03  4.8891915659038943e-03  3.3141220506366850e-03  1.6833343920728552e-03  0.0000000000000000e+00  0.0000000000000000e+00  0.0000000000000000e+00  0.0000000000000000e+00  0.0000000000000000e+00  0.0000000000000000e+00  0.0000000000000000e+00  0.0000000000000000e+00  0.0000000000000000e+00  1.9445452618256794e-03  3.7415365362154169e-03  5.5085116626789679e-03  7.2277363883309093e-03  8.9022662035087626e-03  1.0533056106400365e-02  1.2120752866491826e-02  1.3665264181802717e-02  1.5165985462657286e-02  1.6622879992737045e-02  1.8034376061706638e-02  1.9400344516935251e-02  2.0718373617536763e-02  2.1987666721221585e-02  2.3205856828694162e-02  2.4370279718370708e-02  2.5480455287038180e-02  2.6529886938183943e-02  2.7515586416610855e-02  2.8432832570635787e-02  2.9276923067683581e-02  3.0040455532907524e-02  3.0719582399905253e-02  3.1305282920280599e-02  3.1785769709599981e-02  3.2157406390237335e-02  3.2407479146534642e-02  3.2522814573387966e-02  3.2493852673268576e-02  3.2310239039808182e-02  3.1957324410678709e-02  3.1420788035157916e-02  3.0706450370029423e-02  2.9791091601170126e-02  2.8645145592829435e-02  2.7300877050866632e-02  2.5719812681407668e-02  2.3913990737314903e-02  2.1871306157539305e-02  1.9605728913632055e-02  1.7109824026898587e-02  1.4392809686633791e-02  1.1472634864700449e-02  8.3569872565633172e-03  5.0631922807997040e-03  1.6108539993150389e-03  -1.9824314701554157e-03  -5.6941963067924737e-03  -9.4997541978171420e-03  -1.3373205846601234e-02  -1.7294848634853081e-02  -2.1242821576666199e-02  -2.5196239151888251e-02  -2.9139472410499662e-02  -3.3057822011871574e-02  -3.6939891181646450e-02  -4.0780857595830243e-02  -4.4581100182807622e-02  -4.8341533794608788e-02  -5.2071202411507367e-02  -5.5787050172369471e-02  -5.9509617342338200e-02  -6.3267273278799149e-02  -6.7096129010322067e-02  -7.1041864555181564e-02  -7.5158250866950022e-02  -7.9506932650206349e-02  -8.4171556129754632e-02  -8.9229090733846037e-02  -9.4784653586656886e-02  -1.0094639199917119e-01  -1.0781302524965447e-01  -1.1546811094511937e-01  -1.2393429497062079e-01  -1.3307531177315818e-01  -1.4274358026003131e-01  -1.5250929363883994e-01  -1.6195791371710877e-01  -1.7063297222486104e-01  -1.7830235705486466e-01  -1.8436795716017779e-01  -1.8890857922946430e-01  -1.9179962722378308e-01  -1.9345717635891849e-01  -1.9374808127745830e-01  -1.9277642795145539e-01  -1.9089093176787514e-01  -1.8818376397499503e-01  -1.8471328537664172e-01  -1.8068928948809615e-01  -1.7615105126351388e-01  -1.7127849690593103e-01  -1.6609860910551175e-01  -1.6063497617826109e-01  -1.5500870181715862e-01  -1.4923339104611857e-01  -1.4332160681065173e-01  -1.3731167941594649e-01  -1.3123803651364038e-01  -1.2511419772028007e-01  -1.1894644359547314e-01  -1.1275243845808772e-01  -1.0653492741235322e-01  -1.0031261886341675e-01  -9.4082206434030910e-02  -8.7852537917213813e-02  -8.1627376667307586e-02  -7.5408481918657469e-02  -6.9200002048245765e-02  -6.3003230861155446e-02  -5.6819277587638710e-02  -5.0649861586668066e-02  -4.4496024836058586e-02  -3.8358461239632179e-02  -3.2237737959428588e-02  -2.6134794658631621e-02  -2.0049467975668832e-02  -1.3982279594685232e-02  -7.9335959052354039e-03  -1.9034231536163601e-03  4.1078822650154681e-03  1.0099906383439331e-02  1.0096532882150585e-02  1.0088294427663187e-02  1.0075362343584828e-02  1.0059654229351393e-02  1.0043929872003947e-02  1.0030970671363399e-02  1.0022677224172617e-02  1.0019315780931869e-02  5.0368028786614824e-02  -6.1195015825622881e-02  -1.1218636944820617e+00  -6.1494103218049767e-01  -4.9038996495024423e-01  -4.1414293564405319e-01  -3.6117120994455754e-01  -3.2046028443378277e-01  -2.8768571497937373e-01  -2.6628169321902262e-01  -2.4626885985479433e-01  -2.2925631381366529e-01  -2.1325064833703269e-01  -1.9806430716764403e-01  -1.8336729708474350e-01  8.4398787628418140e-02  9.0047022826912099e-02  7.2180391459727808e-02  4.7042903646043632e-02  2.6038138347790830e-02  1.1511041498223575e-02  -6.6286419629373183e-01  -9.6933109788987740e-02  3.7164722223808331e-03  8.5306905553178666e-04  1.6661745110425064e-03  -1.3065468885060239e-02  4.8187060110597866e-03  -1.6889905061399385e-01  8.7054819588502225e-03  -1.5402890767565122e-01  1.3210553840897263e-02  -7.7177610026839233e-02  -6.1338828252753969e-02  1.7450992621845927e-02  -4.6539401493962934e-02  -1.3919141169511592e-01  -2.7295104406957461e-02  2.0615247559327074e-02  -1.2363929465313807e-01  2.1338292941661355e-02  2.2997860002014345e-02  -7.8103922817696339e-03  -1.1898645558838074e-01  -1.0779560964753751e-01  2.4159691637762989e-02  1.2664930837148916e-02  -9.0004469503512471e-02  2.0362876475620944e-02  2.4041000425468806e-02  2.6354741937265742e-02  -7.2549416791310328e-02  -1.4582859587577840e-01  2.2689670894097121e-02  3.0073276152782914e-02  -1.7321383524314163e-01  3.1977837923691292e-02  2.0032190378566982e-02  -1.8963582513448382e-01  -5.2245871946156763e-02  -3.8189449633592554e-02  3.0930450761556716e-03  1.7280622538198342e-02  1.3797702483372190e-02  3.2297382725367765e-02  -1.9295075624003402e-01  3.0824300450823700e-02  -7.5068114734325442e-01  -1.8281468325497718e-01  2.8723480991703163e-02  -2.0711133910655516e-02  -1.6864212227642603e-01  1.0042125178318984e-02  2.4846054777262046e-02  -1.5197520518646318e-01  -1.2800141747328769e-01  2.1274082588363115e-02  -9.7190262383835421e-02  1.7260268341235299e-02  -7.8459433943174936e-02  -5.9803838470789607e-02  1.2839192187674695e-02  -2.8292587642431300e-02  1.6002268215659758e-03  4.4863197239150207e-03  1.3269694639565452e-03  8.1518115004548686e-03  5.5614924084581617e-03  -1.0506882644803319e-02  -3.1695308407210569e-02  9.0812449946080630e-03  -8.6273015218107041e-02  -1.8928451032649948e-01  -1.4075420764237476e-01  -1.1615729833768400e-01  -1.0249091248015615e-02  -1.9775019156171900e-02  -3.8781483146620041e-02  -5.3861646634469781e-02  -6.8919487964632348e-02  -6.2225524478854641e-02  3.1809427033033147e-02  -8.1533162029653591e-02  -4.7608985218886520e-02  2.6916225137287707e-02  2.1511038149944366e-02  -9.9461708851851086e-02  2.3475602021533207e-02  2.4266374755963899e-02  -1.1534121745972262e-01  2.3733566306995003e-02  2.1948004694014426e-02  1.8957124504122309e-02  1.5463754546615865e-02  6.9460087037624659e-03  -1.3149766980189564e-01  1.0945840684757577e-02  6.7074038562172835e-03  -1.4673549499833699e-01  3.0498674879169772e-03  9.0824600036557446e-04  1.7380010801873545e-03  1.3108466087059668e-03  -1.6195581597059697e-01  -1.7558035574307451e-01  4.7985199719668137e-03  -1.9029616347348227e-01  -2.0557187085893461e-01  -2.2111700814505048e-01  -2.3791250307388354e-01  -2.5604285211886740e-01  -2.7610135348794984e-01  7.0383545512470599e-02  -3.0623892270907721e-01  -3.4309505384777733e-01  -3.9078322478904359e-01  9.1098135221298962e-02  -4.5658439596988493e-01  5.9961992296393603e-02  8.2553229814566240e-02  3.6680192036903030e-02  1.7977348650540233e-02  -5.5622948519905446e-01  -1.6310516357828744e+00  1.6915454874448519e-03  4.3529252142354502e-03  4.5409688058499834e-03  5.1030105033954718e-03  5.0357436103383602e-03  1.3222278841832765e-03  1.0045855718123717e-03  6.3224700096932845e-03  6.9295708946390411e-03  9.5927429972618335e-03  6.4197776779062413e-03  9.3067408921458355e-03  6.0620843546529014e-03  9.9514034963492266e-03  6.6861084080092996e-03  1.1142032675975600e-02  7.7801598601255984e-03  1.2048181626766045e-02  7.4221595344813023e-03  1.1561302673540604e-02  3.7774491719568671e-03  7.9224423167201692e-03  -3.5857315226167160e-03  5.7351998043204933e-04  -1.4600436227029497e-02  -1.0298208398509541e-02  -2.7966072403896543e-02  -2.2547335768307177e-02  -3.5082809644966753e-02  -2.7501612700981184e-03  -1.8057106307044990e-02  -4.8040355524248034e-02  -5.7520020063446392e-02  1.8808292201153238e-05  -1.4512021380233601e-02  4.4254211091064666e-03  -1.2837827386680666e-02  7.4688066331912457e-03  -1.3082033028422816e-02  9.1279506108335288e-03  -1.1268672347226819e-02  9.9866825197294212e-03  -1.4856918367037463e-02  7.8731937507013385e-03  -1.3805528820552177e-02  6.4533894515990510e-03  -1.5846570484297072e-02  3.8538818149369421e-03  -1.7894239170130818e-02  7.7591165949015151e-04  -2.0395439071247919e-02  -2.5790288881312926e-03  -2.2169597644890258e-02  -5.8988341971753649e-03  -2.4250253343833728e-02  -9.0908971599719061e-03  -2.5623259246602494e-02  -1.2923932891790398e-02  -2.6842306510768132e-02  -1.3367987081653878e-02  -6.8871343943770258e-02  -8.2580133625924979e-02  -2.8066104688552636e-02  -1.6718397719690751e-02  -2.7940682251989504e-02  -1.7785897846122275e-02  -2.8322368682472954e-02  -1.8846991529169473e-02  -2.7882561463145029e-02  -1.9316200109085024e-02  -3.2378876364726250e-02  -2.7000614219813295e-02  -1.9361144253182874e-02  -2.6780362621915844e-02  -1.9203515831348970e-02  -2.4413338846958718e-02  -1.8277990510606888e-02  -8.8913666948965478e-02  -1.0815035480261512e-01  9.3448871539848636e-04  -2.2823489065798421e-02  -1.7220115748362595e-02  -2.0849083559615112e-02  -1.5877222352408689e-02  -1.8758777775125541e-02  -1.4306818307580946e-02  -7.6707928048542942e-02  -1.6481982452816950e-02  -1.2511861371851707e-02  -3.2314837184524485e-02  -1.4084556142158771e-02  -1.0562076710053743e-02  -1.1591604666321266e-02  -8.4498137369397475e-03  -8.9920900400802199e-03  -6.2677894549304780e-03  1.6542311431210207e-02  -3.4015994785927497e-02  -6.3795899058601150e-03  -3.9765240108313752e-03  -1.0698515636215296e-01  -1.2627460189482889e-01  -9.2459444817907341e-02  -3.6846455845168949e-02  -3.7310841087890233e-03  -1.5971628224238127e-03  -1.0834075287487115e-03  7.9303337862009313e-04  1.5534515941098522e-03  3.1048855067618546e-03  -1.1932401761221685e-02  -1.5915073432333057e-03  -9.8158943792276999e-03  -1.0643684876319993e-02  4.1409884575763769e-03  5.4096136425561660e-03  4.3748942713351295e-03  6.3725346755797250e-03  7.6650355060851562e-03  8.3329284524946406e-03  9.8564009562387058e-03  1.0299782189107529e-02  1.1983949404814450e-02  1.2250616837085265e-02  1.4021986084682461e-02  1.4102322698246244e-02  1.5956281702639293e-02  1.5867828671459101e-02  1.7804903616547647e-02  1.7545768279613731e-02  1.9516422689244969e-02  1.9066063581103489e-02  2.1092394814024258e-02  2.0528980094895049e-02  2.2560661687047210e-02  2.1873241244657133e-02  2.3932323919283332e-02  2.3112982840470694e-02  -5.8161189277747011e-03  -3.8502389766957926e-02  2.5143005849296993e-02  2.4226751637920898e-02  2.6174143054563691e-02  2.5216917750226216e-02  2.7375509662395613e-02  1.5171972061335082e-02  2.7097795380582837e-02  2.6083282711236454e-02  2.6760601611486683e-02  -3.5751599551038155e-02  -1.1971624849532581e-01  -1.3968381898300841e-01  -1.5628596184036583e-01  -1.6641073897298836e-01  -1.9248890504483254e-01  -1.9675946116708087e-01  -2.3897565467783186e-01  -2.3116831133855387e-01  -2.7638410196283997e-01  -2.6245035492399638e-01  -3.1612413053666638e-01  -2.9041820338742091e-01  -3.4209874976524779e-01  -3.1106449597151359e-01  -3.5904385398056288e-01  -3.2527418875710912e-01  -3.6646567213144088e-01  -3.3240071810146776e-01  -3.6689336359441260e-01  -3.3392585772937861e-01  -3.6223275145595801e-01  -3.3163412736376313e-01  -3.5482868034706877e-01  -3.2705252649824251e-01  -3.4588368011808662e-01  -3.2113558070678738e-01  -3.3503989634442621e-01  -3.1257893496879496e-01  -2.9708985649518516e-01  -2.9258985219683165e-01  -3.0578387173638039e-01  -2.8773838018172332e-01  -3.0010918425548871e-01  -2.8290728659313363e-01  -2.9242251906543659e-01  -2.7725996204150521e-01  -2.7518789124304566e-01  -2.7458401375468350e-01  -3.0344527546847261e-01  -2.8524049879711572e-01  -2.7156341913706628e-01  -2.6199526962767694e-01  -2.5799420560086245e-01  -2.6588958204389368e-01  -2.5408744801379518e-01  -2.6014642242413955e-01  -2.4964480252034285e-01  -2.5443195883676595e-01  -2.4466235740980949e-01  -2.4519066422231875e-01  -2.2363196299151539e-01  -3.7887685058667619e-01  -2.4884473202821628e-01  -2.3985686741476125e-01  -2.3502285335138620e-01  -2.3090532542208905e-01  -2.3510249792040327e-01  -2.2703087770819769e-01  -2.3021305039224094e-01  -2.2286784370815854e-01  -4.1026235672818268e-01  -2.2241166508423382e-01  -2.2535476112815253e-01  -2.1873060404163991e-01  -3.9658384459550744e-01  -2.2065957148302198e-01  -2.1435360557059549e-01  -2.1235939748835184e-01  -2.0806319299802684e-01  -2.0991395357803708e-01  -2.0397569550430483e-01  -2.0171738959352542e-01  -1.9808065133157307e-01  -1.9986011105980384e-01  -1.9432164458949036e-01  -1.9565865692124040e-01  -1.9036215152452959e-01  -1.8890291967561681e-01  -1.8524175870167159e-01  -1.8627859182681222e-01  -1.8143369123007802e-01  -1.8215099085956440e-01  -1.7750906470168504e-01  -1.6916241866409487e-01  -3.1766141583859031e-01  -3.7046310327099613e-01  -1.7804197334011326e-01  -1.7353928730355106e-01  -1.7292361155970962e-01  -1.6897503055732710e-01  -1.6934224051841751e-01  -1.6496346808857451e-01  -1.6833823859442820e-01  2.7928970186047234e-02  2.6839507219659647e-02  2.8598681650086732e-02  2.7468787176738407e-02  2.9130044074076104e-02  2.7974238789277437e-02  -2.7143415442069502e-01  -2.7972857914908122e-02  3.5531309229306402e-03  -1.6506883662684557e-01  -1.6089098626687517e-01  -2.9888189030619056e-01  1.3846069290850306e-02  2.1005098166402249e-02  5.2880806276394184e-03  2.9532903531759726e-02  2.8358415855328698e-02  2.6686716455450829e-02  2.7075681261038008e-02  2.8626972421980212e-02  2.7347524126262679e-02  2.8771457297262947e-02  2.7508232026030303e-02  2.8817600199113235e-02  2.7581515049375695e-02  2.8754692013271528e-02  2.7547819618121624e-02  2.8600050982002769e-02  2.7428467463257378e-02  2.8363854346280821e-02  2.7204402091327833e-02  2.8026263462489379e-02  2.6891355351707513e-02  2.7593161403227342e-02  2.6482766797529193e-02  2.7063760161356299e-02  2.5988542908404497e-02  2.6464864195191753e-02  2.5414472173308580e-02  2.5795111403929222e-02  2.4754852275730255e-02  2.5043531593654925e-02  2.4026002228179733e-02  2.4183122113476417e-02  2.3208974397709567e-02  2.3331241079234278e-02  2.2336616066246529e-02  2.4850806420450275e-02  -1.8385206778482055e-01  -2.3824319880293118e-01  -1.6069565237387742e-01  -1.5664754733033065e-01  -1.5677100115254372e-01  -1.5248373666115544e-01  -1.5263061191693225e-01  -1.4833603355364877e-01  -1.4816348015896258e-01  -1.4407111231739825e-01  -1.4365189182810642e-01  -1.3966101585328042e-01  -1.3998959110585388e-01  -1.3564320684714043e-01  -1.3535330106421545e-01  -1.3128230718631378e-01  -1.3090770606804386e-01  -1.26854417