<?xml version="1.0"?>
<VTKFile type="UnstructuredGrid"  version="0.1"  >
<UnstructuredGrid>
<Piece  NumberOfPoints="2886" NumberOfCells="5412">
<Points>
<DataArray  type="Float64"  NumberOfComponents="3"  format="ascii">0 0.1 0  0.98 0.1 0  1 0.1 0  1 0 0  1.5 0 0  3 0 0  3 0.3 0  0 0.3 0  0.01975375321854102 0.1 0  0.03918897458218897 0.1 0  0.05831079002627837 0.1 0  0.07712425666319796 0.1 0  0.0956343475259058 0.1 0  0.1138459546796227 0.1 0  0.1317638870668193 0.1 0  0.1493928840275937 0.1 0  0.1667376092280033 0.1 0  0.1838026357802664 0.1 0  0.2005924801287244 0.1 0  0.2171115811543574 0.1 0  0.2333643037107681 0.1 0  0.2493549444060462 0.1 0  0.2650877293306821 0.1 0  0.2805668058011438 0.1 0  0.2957962848620976 0.1 0  0.3107801766802674 0.1 0  0.3255224447361181 0.1 0  0.3400269848175519 0.1 0  0.3542976327080778 0.1 0  0.3683381609158136 0.1 0  0.3821522744564845 0.1 0  0.3957436316838916 0.1 0  0.4091158196437086 0.1 0  0.4222723742184605 0.1 0  0.4352167733293057 0.1 0  0.4479524348643424 0.1 0  0.4604827295467524 0.1 0  0.4728109659990664 0.1 0  0.4849404035409129 0.1 0  0.4968742471455402 0.1 0  0.508615651843175 0.1 0  0.520167721130924 0.1 0  0.5315335063628542 0.1 0  0.5427160117228604 0.1 0  0.5537181940261912 0.1 0  0.564542961924507 0.1 0  0.575193173270606 0.1 0  0.5856716438765114 0.1 0  0.5959811458006617 0.1 0  0.6061243988680743 0.1 0  0.6161040893285659 0.1 0  0.6259228503970299 0.1 0  0.6355832809287655 0.1 0  0.6450879281079505 0.1 0  0.6544393102991295 0.1 0  0.663639896558931 0.1 0  0.6726921201956305 0.1 0  0.6815983691630338 0.1 0  0.6903610031396646 0.1 0  0.6989823343332418 0.1 0  0.7074646404270378 0.1 0  0.7158101645005117 0.1 0  0.7240211149852543 0.1 0  0.7320996585612525 0.1 0  0.7400479319727645 0.1 0  0.7478680336617921 0.1 0  0.755562036504958 0.1 0  0.7631319665092091 0.1 0  0.7705798279317605 0.1 0  0.777907588066146 0.1 0  0.7851171851013118 0.1 0  0.7922105226004981 0.1 0  0.7991894774550319 0.1 0  0.8060558928136696 0.1 0  0.812811583201334 0.1 0  0.8194583352091183 0.1 0  0.8259979035038147 0.1 0  0.8324320194413813 0.1 0  0.8387623808293405 0.1 0  0.8449906627004957 0.1 0  0.8511185094880469 0.1 0  0.8571475426008311 0.1 0  0.8630793533568246 0.1 0  0.8689155114558531 0.1 0  0.8746575581239063 0.1 0  0.8803070109173519 0.1 0  0.885865363938836 0.1 0  0.8913340851680313 0.1 0  0.8967146206523592 0.1 0  0.9020083930695622 0.1 0  0.9072167995950768 0.1 0  0.9123412183131177 0.1 0  0.9173830029719022 0.1 0  0.9223434865647732 0.1 0  0.9272239785872722 0.1 0  0.9320257720706087 0.1 0  0.9367501330378739 0.1 0  0.9413983102716995 0.1 0  0.9459715351562933 0.1 0  0.9504710127113115 0.1 0  0.9548979346500661 0.1 0  0.9592534708344373 0.1 0  0.9635387708980176 0.1 0  0.9677549682252325 0.1 0  0.971903177251235 0.1 0  0.9759844952956497 0.1 0  0.9840000000000086 0.1 0  0.987999999999974 0.1 0  0.9919999999999393 0.1 0  0.9959999999999913 0.1 0  1 0.09591793123533533 0  1 0.09133596463859224 0  1 0.08619288104391448 0  1 0.08041996484521211 0  1 0.07394008421771697 0  1 0.06666666567302955 0  1 0.05850252932209174 0  1 0.04933859630113544 0  1 0.03905242821848202 0  1 0.02750659386753798 0  1 0.01454683679239736 0  1.015625 0 0  1.03125 0 0  1.046875 0 0  1.0625 0 0  1.078125 0 0  1.09375 0 0  1.109375 0 0  1.125 0 0  1.140625 0 0  1.15625 0 0  1.171875 0 0  1.1875 0 0  1.203125 0 0  1.21875 0 0  1.234375 0 0  1.25 0 0  1.265625 0 0  1.28125 0 0  1.296875 0 0  1.3125 0 0  1.328125 0 0  1.34375 0 0  1.359375 0 0  1.375 0 0  1.390625 0 0  1.40625 0 0  1.421875 0 0  1.4375 0 0  1.453125 0 0  1.46875 0 0  1.484375 0 0  1.515920751924515 0 0  1.531989369316721 0 0  1.54820720925872 0 0  1.564575665560501 0 0  1.581096138674279 0 0  1.597770029901263 0 0  1.614598783332311 0 0  1.631583831055205 0 0  1.64872661129721 0 0  1.666028606716533 0 0  1.683491276608443 0 0  1.701116134125304 0 0  1.718904673324128 0 0  1.736858414799339 0 0  1.754978895814663 0 0  1.773267661782904 0 0  1.791726281103402 0 0  1.810356325314689 0 0  1.8291593848892 0 0  1.848137076690385 0 0  1.867291007717254 0 0  1.886622833871288 0 0  1.90613418642363 0 0  1.925826753299799 0 0  1.945702199101513 0 0  1.96576223584749 0 0  1.986008569283268 0 0  2.006442931928877 0 0  2.02706707547783 0 0  2.047882750887917 0 0  2.06889175187935 0 0  2.090095860038271 0 0  2.111496891648636 0 0  2.133096679109554 0 0  2.154897066851056 0 0  2.176899916687499 0 0  2.199107102752146 0 0  2.22152053937028 0 0  2.244142122958061 0 0  2.266973806444078 0 0  2.290017523268154 0 0  2.313275249499252 0 0  2.336748971745516 0 0  2.360440702338606 0 0  2.384352453384031 0 0  2.408486280477412 0 0  2.432844240041185 0 0  2.457428414757088 0 0  2.482240901796653 0 0  2.507283830121838 0 0  2.532559332080812 0 0  2.558069568787417 0 0  2.583816724966441 0 0  2.60980299606584 0 0  2.636030600971886 0 0  2.662501790984011 0 0  2.689218818279327 0 0  2.716183964547616 0 0  2.743399548861297 0 0  2.77086788244719 0 0  2.798591312896326 0 0  2.826572223178268 0 0  2.854812990138617 0 0  2.883316031690714 0 0  2.912083780657189 0 0  2.941118704633482 0 0  2.970423276998917 0 0  3 0.02999999999994495 0  3 0.05999999999987042 0  3 0.089999999999783 0  3 0.119999999999701 0  3 0.149999999999619 0  3 0.179999999999692 0  3 0.2099999999997737 0  3 0.2399999999998511 0  3 0.2699999999999185 0  2.970138294777171 0.3 0  2.940375666438236 0.3 0  2.910711782853056 0.3 0  2.881146331305122 0.3 0  2.851678975030285 0.3 0  2.822309388626621 0.3 0  2.793037250095074 0.3 0  2.76386223529133 0.3 0  2.734784017903872 0.3 0  2.705802289276642 0.3 0  2.676916713794697 0.3 0  2.648126987654635 0.3 0  2.619432780406184 0.3 0  2.590833779385199 0.3 0  2.562329669847737 0.3 0  2.533920134950189 0.3 0  2.505604855727852 0.3 0  2.477383539822502 0.3 0  2.449255847639465 0.3 0  2.421221492569094 0.3 0  2.393280152486815 0.3 0  2.36543151914496 0.3 0  2.337675285481809 0.3 0  2.310011142385583 0.3 0  2.282438797441587 0.3 0  2.254957931061538 0.3 0  2.227568248063605 0.3 0  2.200269436651085 0.3 0  2.173061204949961 0.3 0  2.145943251515011 0.3 0  2.118915272469994 0.3 0  2.091976978084957 0.3 0  2.065128060700849 0.3 0  2.038368218849433 0.3 0  2.01169717777258 0.3 0  1.985114624111908 0.3 0  1.958620267850966 0.3 0  1.93221382054972 0.3 0  1.905894991850698 0.3 0  1.879663489459713 0.3 0  1.853519019126419 0.3 0  1.827461291053897 0.3 0  1.801490031354372 0.3 0  1.775604937580312 0.3 0  1.74980572560258 0.3 0  1.724092118631866 0.3 0  1.698463829173586 0.3 0  1.672920575782554 0.3 0  1.647462076974085 0.3 0  1.622088043536933 0.3 0  1.5967981978949 0.3 0  1.571592267767068 0.3 0  1.546469970305736 0.3 0  1.521431023814044 0.3 0  1.496475156230927 0.3 0  1.471602093687753 0.3 0  1.446811560490646 0.3 0  1.422103279101731 0.3 0  1.397476971708191 0.3 0  1.37293238939876 0.3 0  1.348469231419202 0.3 0  1.324087248732772 0.3 0  1.299786165921677 0.3 0  1.275565710847046 0.3 0  1.251425617644257 0.3 0  1.227365618676339 0.3 0  1.203385446174014 0.3 0  1.179484853067473 0.3 0  1.155663548773374 0.3 0  1.131921292279077 0.3 0  1.108257802159295 0.3 0  1.084672829009693 0.3 0  1.061166115303374 0.3 0  1.037737392995421 0.3 0  1.01438640299116 0.3 0  0.991112899770314 0.3 0  0.9679166155523955 0.3 0  0.944797284182564 0.3 0  0.921754678526042 0.3 0  0.8987885143602501 0.3 0  0.8758985548820624 0.3 0  0.8530845484099929 0.3 0  0.8303462351786988 0.3 0  0.8076833651172373 0.3 0  0.7850956864865304 0.3 0  0.7625829601354557 0.3 0  0.7401449314598274 0.3 0  0.717781337993959 0.3 0  0.6954919649675473 0.3 0  0.6732765357561226 0.3 0  0.6511348120768439 0.3 0  0.6290665642016573 0.3 0  0.6070715355430467 0.3 0  0.5851494825775325 0.3 0  0.5633001690203812 0.3 0  0.5415233562273221 0.3 0  0.5198187909431873 0.3 0  0.4981862401387795 0.3 0  0.4766254686134248 0.3 0  0.4551362360485234 0.3 0  0.4337182975262159 0.3 0  0.4123714223228037 0.3 0  0.3910953802377493 0.3 0  0.3698899313205595 0.3 0  0.3487548463710963 0.3 0  0.3276898864081783 0.3 0  0.3066948129116018 0.3 0  0.2857694003037476 0.3 0  0.2649134227095047 0.3 0  0.2441266417321288 0.3 0  0.2234088223399122 0.3 0  0.2027597568977288 0.3 0  0.1821792020676698 0.3 0  0.1616669305402443 0.3 0  0.1412227158799362 0.3 0  0.12084633013886 0.3 0  0.1005375673448281 0.3 0  0.08029618164595353 0.3 0  0.06012194778526769 0.3 0  0.04001466495039718 0.3 0  0.01997408913631205 0.3 0  0 0.2800000000000553 0  0 0.2600000000001105 0  0 0.2400000000001658 0  0 0.2200000000002211 0  0 0.2000000000002764 0  0 0.1800000000002244 0  0 0.1600000000001691 0  0 0.140000000000115 0  0 0.1200000000000564 0  1.13346801534201 0.01255848438672509 0  1.003577645172735 0.09351054173913405 0  0.9777559943702486 0.1034978156913738 0  0.9524533750752109 0.1040889939962738 0  0.9296242411226409 0.1041520033606139 0  0.9046110503652111 0.104409422380137 0  0.8777709649694228 0.1053360318797398 0  0.8483859145648608 0.1061007868330701 0  0.8162363822948977 0.1052777104363292 0  0.7893110024210437 0.1060761643971561 0  0.7587949382612539 0.1067265405088633 0  0.7280603867732535 0.1069398153264939 0  0.6947001989413015 0.1075609887579097 0  0.6590363283767549 0.1076715322596598 0  0.6210028614493155 0.1072970410408442 0  1.1953125 0.01353164693413185 0  1.258193991486058 0.01269648635163345 0  1.3201967268638 0.01407907077719561 0  1.383538555392096 0.01434101079053473 0  1.445312500000001 0.01303671693628424 0  1.508925448095738 0.01398525724792267 0  0.9939176689634008 0.1034638089837981 0  1.120967497222226 0.2796788492172345 0  1.572835902117391 0.01424132418857359 0  1.637573277451887 0.01212536916586023 0  1.709730776795181 0.01466855431023635 0  1.005631976950563 0.07074019818158772 0  1.784944696816299 0.01454708406461822 0  0.5805605730631225 0.1101465090472147 0  1.855621181165637 0.01550931272897607 0  0.5366111276616774 0.1096761308243709 0  1.935200147913231 0.01760344159641829 0  1.214922267975168 0.2799787705802257 0  1.31178773425331 0.2792
[...]
<PointData  Scalars="pressure"> 
<DataArray  type="Float64"  Name="pressure"  format="ascii">-5.2017047325794534e-04  -1.1187180244255479e+00  -1.1827614760871162e-03  -8.4662818255317693e-05  9.0241833768955389e-03  0.0000000000000000e+00  0.0000000000000000e+00  -4.3949438129635231e-04  -6.4462545343898425e-03  -1.2277568314199535e-02  -1.8015974911630307e-02  -2.3663077369158254e-02  -2.9220609010471715e-02  -3.4690168779464250e-02  -4.0073108796963262e-02  -4.5371397703437524e-02  -5.0586395564262483e-02  -5.5719659745609135e-02  -6.0773110819591247e-02  -6.5748279613708868e-02  -7.0646532080772428e-02  -7.5469986522082561e-02  -8.0220251036988779e-02  -8.4898236966080995e-02  -8.9507003283737577e-02  -9.4047640238716923e-02  -9.8521932762707445e-02  -1.0293252604559787e-01  -1.0728072845038031e-01  -1.1156764316598035e-01  -1.1579707387424655e-01  -1.1996992698120862e-01  -1.2408966874162705e-01  -1.2815780621592759e-01  -1.3217538557345537e-01  -1.3614622794522055e-01  -1.4007326558200328e-01  -1.4395814296736381e-01  -1.4780360618108029e-01  -1.5161328566366877e-01  -1.5538871828862574e-01  -1.5913433817395795e-01  -1.6285235310950555e-01  -1.6654693745374816e-01  -1.7022124152290166e-01  -1.7387397929883211e-01  -1.7751738197037314e-01  -1.8114987474279381e-01  -1.8477565201055254e-01  -1.8840147986606262e-01  -1.9203087353206102e-01  -1.9566078763230699e-01  -1.9930779858853323e-01  -2.0296971156276042e-01  -2.0665231733403494e-01  -2.1036175731698228e-01  -2.1410279994757239e-01  -2.1788108747844445e-01  -2.2170414606089556e-01  -2.2557695487467511e-01  -2.2950494540873434e-01  -2.3349386134943473e-01  -2.3755780434741972e-01  -2.4169590766329543e-01  -2.4591942388842084e-01  -2.5023107059040101e-01  -2.5465339001698112e-01  -2.5918884616800963e-01  -2.6383492453569796e-01  -2.6861257769019653e-01  -2.7354130356571532e-01  -2.7861391773463723e-01  -2.8385909224740458e-01  -2.8928706957865979e-01  -2.9489964101306121e-01  -3.0072284075796080e-01  -3.0677242036215097e-01  -3.1306513157206678e-01  -3.1963542154809726e-01  -3.2649135870910573e-01  -3.3364587934508055e-01  -3.4111572410696012e-01  -3.4898583815327072e-01  -3.5724832730701706e-01  -3.6593397731475169e-01  -3.7510384495014421e-01  -3.8479043774433302e-01  -3.9505095409794450e-01  -4.0594142429828151e-01  -4.1756942753708187e-01  -4.2999860044699811e-01  -4.4330205510800302e-01  -4.5764828854939688e-01  -4.7317856229253752e-01  -4.9007243342239604e-01  -5.0857193059177563e-01  -5.2897409045711097e-01  -5.5166811783119385e-01  -5.7719247649410921e-01  -6.0629520137233839e-01  -6.4003821832903418e-01  -6.7990499846116459e-01  -7.2882705954637250e-01  -7.9113074873091827e-01  -8.7426354045249877e-01  -1.0176873543595957e+00  -2.3181780230309248e+00  -2.0213754883132822e+00  -1.3873483847394044e+00  -7.9593277286223851e-01  -1.6397211103749243e-01  -6.7857891915136803e-02  -4.9938894430675194e-02  -3.2792275118664199e-02  -2.2095798822910091e-02  -1.4661098838025506e-02  -9.2513311053958984e-03  -4.9197318762055691e-03  -1.5564758263038596e-03  5.3969459008559103e-04  7.0687558033612782e-04  -1.0554514353347437e-03  -7.8836322197028486e-04  1.4751468277431499e-03  5.6980050520736777e-03  1.1864845661147748e-02  1.9766870143044971e-02  2.9069381066396907e-02  3.9285998023264809e-02  4.9628207673972073e-02  5.9387669902427040e-02  6.7976614224013479e-02  7.4921421179912004e-02  7.9990729252466738e-02  8.3078043014015376e-02  8.4189685482699048e-02  8.3507578031899829e-02  8.1265293976232847e-02  7.7721550617881399e-02  7.3204443614480585e-02  6.7952006607135476e-02  6.2153363019649209e-02  5.6206129426640522e-02  5.0102101582289067e-02  4.4140607816477231e-02  3.8400503654358521e-02  3.2972896510517088e-02  2.7900700599382520e-02  2.3247080789853214e-02  1.9021861139735773e-02  1.5251718170491828e-02  1.1923128169877308e-02  6.4949299674882171e-03  4.3524606184906830e-03  2.5923489670846289e-03  1.1697758013882917e-03  7.4547570305597103e-05  -6.7781089285516615e-04  -1.2094960705251357e-03  -1.4705779574924714e-03  -1.4823490193280674e-03  -1.2891234547019446e-03  -9.2895532226947920e-04  -4.0659411753310275e-04  2.6087121642914737e-04  1.0434000694215329e-03  1.9267741572268414e-03  2.8954378894972769e-03  3.9257255143985773e-03  5.0106970540188889e-03  6.1342207258974924e-03  7.2817419022549604e-03  8.4440497707722658e-03  9.6080018237044880e-03  1.0762190509345571e-02  1.1904833017409883e-02  1.3018070593653813e-02  1.4104620475840277e-02  1.5151046760083288e-02  1.6152964010313044e-02  1.7104876488601126e-02  1.8004135641128412e-02  1.8846294449090466e-02  1.9625620807967963e-02  2.0340911290507670e-02  2.0989245813974256e-02  2.1567083493760061e-02  2.2073421377884355e-02  2.2505572440559556e-02  2.2863238917425897e-02  2.3144387413001465e-02  2.3348878119608087e-02  2.3476529949393359e-02  2.3526662418091093e-02  2.3498843971082706e-02  2.3394399108771981e-02  2.3211243248246017e-02  2.2950353653303852e-02  2.2615589253366541e-02  2.2203990044288153e-02  2.1712723421120791e-02  2.1157769848659327e-02  2.0521032649217095e-02  1.9822843384842213e-02  1.9045166262148666e-02  1.8208326511497560e-02  1.7302437519105183e-02  1.6323153022674692e-02  1.5291164041484413e-02  1.4186019232069930e-02  1.3027201118668480e-02  1.1807497640412659e-02  1.0527809216340821e-02  9.1886429312833112e-03  7.7942024222846570e-03  6.3496484922733456e-03  4.8472126541898334e-03  3.3020384608657884e-03  1.7024207159507892e-03  0.0000000000000000e+00  0.0000000000000000e+00  0.0000000000000000e+00  0.0000000000000000e+00  0.0000000000000000e+00  0.0000000000000000e+00  0.0000000000000000e+00  0.0000000000000000e+00  0.0000000000000000e+00  1.8599338129709892e-03  3.6381739600428805e-03  5.3839652509068796e-03  7.0922124586085622e-03  8.7643428710998620e-03  1.0400006398697391e-02  1.1998616322589695e-02  1.3559536929832342e-02  1.5082032760085103e-02  1.6565022006235466e-02  1.8006786788236976e-02  1.9406349938494435e-02  2.0760954981418840e-02  2.2069527143877988e-02  2.3329671436848866e-02  2.4536939506180792e-02  2.5690802618711032e-02  2.6784904768594849e-02  2.7815691056153103e-02  2.8777495721440317e-02  2.9665025807884989e-02  3.0470083674999430e-02  3.1188774837722932e-02  3.1809271030549417e-02  3.2320983372520998e-02  3.2718250024963744e-02  3.2986217867495504e-02  3.3112409231953119e-02  3.3085779658970138e-02  3.2894304981991328e-02  3.2522609416067827e-02  3.1952852291340969e-02  3.1193004846810209e-02  3.0219995807398137e-02  2.8999557462299944e-02  2.7562261639323345e-02  2.5874201271663278e-02  2.3943389802146428e-02  2.1758411651754052e-02  1.9332440124211779e-02  1.6659512277374163e-02  1.3747615625318649e-02  1.0615924638132188e-02  7.2724566669158447e-03  3.7355105597209970e-03  2.5868942140408752e-05  -3.8381914502165636e-03  -7.8319715791888532e-03  -1.1930912246896731e-02  -1.6105522034382921e-02  -2.0335388142736204e-02  -2.4596936263207921e-02  -2.8867294506502512e-02  -3.3129678534817533e-02  -3.7367518642913704e-02  -4.1567658983116686e-02  -4.5724390283379879e-02  -4.9838201096761174e-02  -5.3906087183871181e-02  -5.7937920350660622e-02  -6.1950410226068058e-02  -6.5962561507947493e-02  -7.0002970662795580e-02  -7.4106809496102793e-02  -7.8319830870569582e-02  -8.2695315409082898e-02  -8.7294825986135000e-02  -9.2201633818760398e-02  -9.7492659950587396e-02  -1.0327210606850863e-01  -1.0964887837514581e-01  -1.1672072111298003e-01  -1.2457042947277860e-01  -1.3322306397853007e-01  -1.4253863281047802e-01  -1.5236962218398278e-01  -1.6228604114085984e-01  -1.7187021260721949e-01  -1.8066691381359851e-01  -1.8844186586770997e-01  -1.9459363390559439e-01  -1.9920594844074266e-01  -2.0215346947273655e-01  -2.0385761548628334e-01  -2.0418451397962181e-01  -2.0323957433029921e-01  -2.0137534261436554e-01  -1.9868394674413786e-01  -1.9522500381434738e-01  -1.9120967960497254e-01  -1.8667749821023219e-01  -1.8180963998495492e-01  -1.7663306255117367e-01  -1.7117161557568844e-01  -1.6554700870001474e-01  -1.5977280573053007e-01  -1.5386171010418920e-01  -1.4785217484284027e-01  -1.4177880032761503e-01  -1.3565507118070239e-01  -1.2948733662922290e-01  -1.2329328975553144e-01  -1.1707570758149088e-01  -1.1085330198391566e-01  -1.0462278845517631e-01  -9.8393009720438102e-02  -9.2167746375163173e-02  -8.5948752156714436e-02  -7.9740183385979060e-02  -7.3543328674175540e-02  -6.7359301753070047e-02  -6.1189821476651501e-02  -5.5035928492948472e-02  -4.8898317477874251e-02  -4.2777554758185350e-02  -3.6674578621168137e-02  -3.0589225863679140e-02  -2.4522018280998842e-02  -1.8473320793457301e-02  -1.2443140094188780e-02  -6.4318312452344428e-03  -4.3980634998293109e-04  -4.4316062623535660e-04  -4.5135046979566000e-04  -4.6420506417983298e-04  -4.7981842961826411e-04  -4.9544793610893493e-04  -5.0832948215943832e-04  -5.1657400075074691e-04  -5.1991630722144136e-04  4.3811274589434235e-02  -6.5621745446145963e-02  -1.1413424777249677e+00  -6.2734280990119595e-01  -5.0192112772875830e-01  -4.2528424055747688e-01  -3.7209475212416565e-01  -3.3124485720071145e-01  -2.9837831970716711e-01  -2.7692469639764794e-01  -2.5687432312389213e-01  -2.3983706609189051e-01  -2.2381416756843364e-01  -2.0861649551777942e-01  -1.9391244626205426e-01  7.5929430065423811e-02  8.1090497652941601e-02  6.4243095358802751e-02  4.0694355648143110e-02  2.1153491672304330e-02  7.8443000496597366e-03  -6.7765117538385800e-01  -1.0551475482478335e-01  9.8460403634888618e-04  -1.1608818528222251e-03  2.4192384330015199e-04  -1.8049659798598194e-02  3.8215145485535982e-03  -1.7944008645505785e-01  7.9657218592933104e-03  -1.6456784449399450e-01  1.2623153062077399e-02  -8.4839609153878934e-02  -6.7933624128747538e-02  1.6904796222661292e-02  -5.1958247402540070e-02  -1.4972950054046227e-01  -3.1137608974076903e-02  2.0034699712219939e-02  -1.3417721059500134e-01  1.5920319504751645e-02  2.2344708232534687e-02  -1.0114126060066833e-02  -1.2819602077810696e-01  -1.1833370134560904e-01  2.3439789182604094e-02  1.1886134281977240e-02  -1.0054287482790479e-01  2.0131792755457272e-02  2.3293862297365422e-02  2.6538061033568261e-02  -8.3088111903546119e-02  -1.5553086865491211e-01  2.1973811077737715e-02  3.0506710579457388e-02  -1.8329985932206491e-01  3.2530375264887917e-02  1.9417536356864197e-02  -1.9996375232571900e-01  -6.2784826546783329e-02  -4.8728529032566088e-02  1.6136267491242639e-03  1.6781179543411875e-02  1.3442256761720710e-02  3.2862838852331752e-02  -2.0340164076687059e-01  3.1296601147973127e-02  -7.6443296469716837e-01  -1.9333106417485577e-01  2.9086285960725225e-02  -3.1250312090329635e-02  -1.7917548132509137e-01  9.8240478558440213e-03  2.5043178829399996e-02  -1.6251442633198127e-01  -1.3854239417492439e-01  2.1351425184870963e-02  -1.0773096197361112e-01  1.7237908091459364e-02  -8.8999788982461303e-02  -7.0343920589127557e-02  1.2749539130930215e-02  -3.8832391343333099e-02  1.5735766594707924e-03  -6.0531968653344884e-03  -3.7791996226555560e-03  8.0413474405725115e-03  5.4748512718234546e-03  -2.1046616985079855e-02  -3.6535757647169785e-02  3.9227027217113774e-03  -9.4413569144797982e-02  -1.9977824762793431e-01  -1.5129471257849431e-01  -1.2669828508425973e-01  -2.0788302688101466e-02  -2.3014000670180338e-02  -4.3563035311166509e-02  -5.9874492942007480e-02  -7.6059014779625178e-02  -7.2764365540273004e-02  3.2340053957342678e-02  -9.2071713101820565e-02  -5.8148932542232662e-02  2.7196368412186343e-02  2.0837423082355554e-02  -1.0999994041653111e-01  2.2737727703466097e-02  2.3526094380782410e-02  -1.2587919060941427e-01  2.3044026681807345e-02  2.1333396934758379e-02  1.8402568436540111e-02  1.4910841086344504e-02  3.7682637764564712e-03  -1.4203560730003775e-01  1.0297184317497241e-02  5.8540296701788163e-03  -1.5727388911600190e-01  1.8617185063572808e-03  -7.7681511002788267e-04  -5.9042971696465741e-04  1.2779162918218063e-03  -1.7249567188384282e-01  -1.8612300714710051e-01  -5.7408137964654890e-03  -2.0084416847463687e-01  -2.1612909655759480e-01  -2.3168830146317465e-01  -2.4850497155032833e-01  -2.6666557169967187e-01  -2.8676587871209203e-01  6.2771815079691623e-02  -3.1698145197279987e-01  -3.5395406641072380e-01  -4.0182350799232269e-01  8.2152443626541949e-02  -4.6793103059281077e-01  5.2781235049547195e-02  7.4002404931826485e-02  3.1030978953078128e-02  1.3729586840669347e-02  -5.6818110630524488e-01  -1.6576330573844875e+00  1.6673077868792638e-03  -6.1867455308496164e-03  4.4582452757618860e-03  -3.1922848119662997e-05  -5.5034949249139556e-03  1.3073828396197380e-03  -9.5351307230985873e-03  1.1878034562852104e-03  1.8003407877170755e-03  4.4470862210763580e-03  1.3443075388208888e-03  4.2157645086246896e-03  1.0440034576040646e-03  4.8973696783451053e-03  1.6985149701339655e-03  6.0935610359704453e-03  2.7854817264536323e-03  6.9710452637629953e-03  2.3813506906274809e-03  6.4059372576343969e-03  -1.3682909206259792e-03  2.6280772930701679e-03  -8.9260740408968735e-03  -4.9498665996104965e-03  -2.0242439286621550e-02  -1.6141739578258651e-02  -3.4030958468417298e-02  -2.8782720870827769e-02  -4.0985235951489930e-02  -8.7691103213690096e-03  -2.4463250466276336e-02  -5.4439869400191160e-02  -6.3773329058766814e-02  -6.2387155221516194e-03  -2.1074555512318401e-02  -2.0283759042852797e-03  -1.9534281710544114e-02  8.4228486730872918e-04  -1.9865908077456463e-02  2.3843479506300900e-03  -1.8073175301954816e-02  3.1876924337488071e-03  -2.1638514192421309e-02  1.1019342003610944e-03  -2.0490251831840590e-02  -2.3300446074780642e-04  -2.2389500047130192e-02  -2.6782100159768681e-03  -2.4260220764255411e-02  -5.5584351962942079e-03  -2.6555271075011981e-02  -8.6791232985450589e-03  -2.8110173362747522e-02  -1.1745884351035320e-02  -2.9964086161207083e-02  -1.4676415657185143e-02  -3.1108365419416657e-02  -1.8248338260316004e-02  -3.2099359434414582e-02  -1.8429162010951315e-02  -7.5697181656600665e-02  -8.9348197794526255e-02  -3.3109055173761254e-02  -2.1529775206392619e-02  -3.2760985872723622e-02  -2.2369241979444166e-02  -3.2937263373282788e-02  -2.3201037422240316e-02  -3.2292511782914611e-02  -2.3450200496534412e-02  -3.9171331092381904e-02  -3.1206891119230157e-02  -2.3281683760012342e-02  -3.0803407528750285e-02  -2.2916403334377434e-02  -2.8210298909839272e-02  -2.1787467742445880e-02  -9.6240417273643256e-02  -1.1546990803585708e-01  -4.1140838834504744e-03  -2.6418764405324816e-02  -2.0528123730510214e-02  -2.4239819407371965e-02  -1.8988919250670328e-02  -2.1947550938096846e-02  -1.7224362218187461e-02  -8.2991852952265951e-02  -1.9468247974492574e-02  -1.5238979503072224e-02  -3.9299936913611250e-02  -1.6869049643868615e-02  -1.3101962787640363e-02  -1.4177104527282087e-02  -1.0806178310614862e-02  -1.1378769871529226e-02  -8.4458398925925295e-03  1.1199935372613179e-02  -4.0711933295851190e-02  -8.5739887125294324e-03  -5.9801644768043942e-03  -1.1484512352062223e-01  -1.3420418284753605e-01  -1.0028928740327496e-01  -4.2984491383249814e-02  -5.7361354796583086e-03  -3.4278573283801576e-03  -2.9053261490225644e-03  -8.7292647381669931e-04  -9.0423707961457211e-05  1.5914972263113571e-03  -1.5198994974146314e-02  -3.3990697200749560e-03  -1.2493535587315226e-02  -1.4575993765448231e-02  2.6679549392422063e-03  4.0423675345570634e-03  2.9923935495185668e-03  5.1141106540136981e-03  6.4367883677832489e-03  7.1904098154124147e-03  8.7592960856586466e-03  9.2679418911415460e-03  1.1010178541612816e-02  1.1322388344084553e-02  1.3163387078408256e-02  1.3268838709098891e-02  1.5204415924001421e-02  1.5119410227512075e-02  1.7153418151024554e-02  1.6877382943691267e-02  1.8953967881314766e-02  1.8462813549674308e-02  2.0612028553496052e-02  1.9990130154559086e-02  2.2154933393395464e-02  2.1387866734969393e-02  2.3598066216438087e-02  2.2677752452091679e-02  -1.0498162752916238e-02  -4.4048176698415570e-02  2.4870248961925988e-02  2.3830980419775671e-02  2.5952098480261671e-02  2.4860641205725655e-02  2.0639202930681902e-02  8.9935780347051783e-03  2.6920649299925502e-02  2.5755794519401846e-02  1.9910577668628599e-02  -4.0674994935805724e-02  -1.2808224515808375e-01  -1.4816184838532684e-01  -1.6431971755185501e-01  -1.7505258383714703e-01  -2.0085898458148604e-01  -2.0563143014866517e-01  -2.4768929188879324e-01  -2.4032940610300255e-01  -2.8557064186173470e-01  -2.7193781146701795e-01  -3.2572305529815232e-01  -3.0021765622907592e-01  -3.5211512508134873e-01  -3.2114237879415897e-01  -3.6936271997427633e-01  -3.3557173602647677e-01  -3.7698967037353487e-01  -3.4285692658279482e-01  -3.7754421161583113e-01  -3.4448470265439785e-01  -3.7295197668869634e-01  -3.4225637015830385e-01  -3.6557923849190743e-01  -3.3771024655087772e-01  -3.5664285778535437e-01  -3.3181033579714569e-01  -3.4579084868539839e-01  -3.2325295883120064e-01  -3.0769073997236623e-01  -3.0320423765639409e-01  -3.1645767141337555e-01  -2.9835941663678922e-01  -3.1078268721070029e-01  -2.9353087801276867e-01  -3.0308585520995079e-01  -2.8788074382918499e-01  -2.8525809848248540e-01  -2.8512433623545569e-01  -3.1393226954539233e-01  -2.9589333022067926e-01  -2.8217983867921909e-01  -2.7257743476005769e-01  -2.6857759372320172e-01  -2.7650069247594294e-01  -2.6467143635563400e-01  -2.7075141850187501e-01  -2.6022693635169009e-01  -2.6503048136835422e-01  -2.5524073957572335e-01  -2.5574806093344260e-01  -2.3176898000057017e-01  -3.8884853608005193e-01  -2.5943687121239234e-01  -2.5043189364503360e-01  -2.4558346628707176e-01  -2.4146502159574931e-01  -2.4567418858784348e-01  -2.3758987456245231e-01  -2.4078116363077912e-01  -2.3342535347277255e-01  -4.2092141601271460e-01  -2.3295903161918452e-01  -2.3591939917257471e-01  -2.2928652201543806e-01  -4.0743271908779305e-01  -2.3122098394825447e-01  -2.2490755942188603e-01  -2.2290779783070253e-01  -2.1861078634177725e-01  -2.2046605928313770e-01  -2.1452258909978400e-01  -2.1225966248464553e-01  -2.0862328676473380e-01  -2.1040618664227884e-01  -2.0486427421216377e-01  -2.0620380337678829e-01  -2.0090452507443146e-01  -1.9944298465729629e-01  -1.9578212545233792e-01  -1.9682052575124256e-01  -1.9197407138609626e-01  -1.9269238359479496e-01  -1.8804926169900960e-01  -1.7820171300619050e-01  -3.2839075361005404e-01  -3.8131356165487745e-01  -1.8858281093120274e-01  -1.8407920050353965e-01  -1.8346309630350047e-01  -1.7951445006434369e-01  -1.7988180548850580e-01  -1.7550271233334117e-01  -1.7887743497729919e-01  2.7798823209693697e-02  2.6541028545290470e-02  2.8505882241044056e-02  2.7192862611181281e-02  2.9068469222486772e-02  2.7717304152655116e-02  -2.8206616975781335e-01  -3.1885741230127933e-02  -1.4232988283588877e-03  -1.7560803473309392e-01  -1.7142999495461581e-01  -3.0957464629065018e-01  1.3050948740087522e-02  2.0465533037860639e-02  4.0310957802738032e-03  2.9497054907677220e-02  2.8117045265650110e-02  2.6257815415846292e-02  2.6652482328913162e-02  2.8398556183740983e-02  2.6927437583177644e-02  2.8551374108516107e-02  2.7089517220171503e-02  2.8605296663322732e-02  2.7166077876287754e-02  2.8547213972838329e-02  2.7134765042938814e-02  2.8397960732799783e-02  2.7020155399529979e-02  2.8169573034540714e-02  2.6800214916598675e-02  2.7836868514449886e-02  2.6492855862321630e-02  2.7405688328729715e-02  2.6089563015124516e-02  2.6875103002657934e-02  2.5601068545122087e-02  2.6281459963727969e-02  2.5036833103603075e-02  2.5617069975722835e-02  2.4384626891642416e-02  2.4869646819050548e-02  2.3669194802198243e-02  2.4000528631301154e-02  2.2859209124553553e-02  2.3176096387228319e-02  2.2006272604744130e-02  2.4393747934241421e-02  -1.9439037696228667e-01  -2.4882475625216763e-01  -1.7123449595074158e-01  -1.6718629459182335e-01  -1.6731009608584446e-01  -1.6302262991730712e-01  -1.6317000196009920e-01  -1.5887525645947220e-01  -1.5870214201025840e-01  -1.5461012916607009e-01  -1.5419032513390496e-01  -1.5019980842494185e-01  -1.5052906054921161e-01  -1.4618245305306468e-01  -1.4589188702844749e-01  -1.41821326040