<?xml version="1.0"?>
<VTKFile type="UnstructuredGrid"  version="0.1"  >
<UnstructuredGrid>
<Piece  NumberOfPoints="2886" NumberOfCells="5412">
<Points>
<DataArray  type="Float64"  NumberOfComponents="3"  format="ascii">0 0.1 0  0.98 0.1 0  1 0.1 0  1 0 0  1.5 0 0  3 0 0  3 0.3 0  0 0.3 0  0.01975375321854102 0.1 0  0.03918897458218897 0.1 0  0.05831079002627837 0.1 0  0.07712425666319796 0.1 0  0.0956343475259058 0.1 0  0.1138459546796227 0.1 0  0.1317638870668193 0.1 0  0.1493928840275937 0.1 0  0.1667376092280033 0.1 0  0.1838026357802664 0.1 0  0.2005924801287244 0.1 0  0.2171115811543574 0.1 0  0.2333643037107681 0.1 0  0.2493549444060462 0.1 0  0.2650877293306821 0.1 0  0.2805668058011438 0.1 0  0.2957962848620976 0.1 0  0.3107801766802674 0.1 0  0.3255224447361181 0.1 0  0.3400269848175519 0.1 0  0.3542976327080778 0.1 0  0.3683381609158136 0.1 0  0.3821522744564845 0.1 0  0.3957436316838916 0.1 0  0.4091158196437086 0.1 0  0.4222723742184605 0.1 0  0.4352167733293057 0.1 0  0.4479524348643424 0.1 0  0.4604827295467524 0.1 0  0.4728109659990664 0.1 0  0.4849404035409129 0.1 0  0.4968742471455402 0.1 0  0.508615651843175 0.1 0  0.520167721130924 0.1 0  0.5315335063628542 0.1 0  0.5427160117228604 0.1 0  0.5537181940261912 0.1 0  0.564542961924507 0.1 0  0.575193173270606 0.1 0  0.5856716438765114 0.1 0  0.5959811458006617 0.1 0  0.6061243988680743 0.1 0  0.6161040893285659 0.1 0  0.6259228503970299 0.1 0  0.6355832809287655 0.1 0  0.6450879281079505 0.1 0  0.6544393102991295 0.1 0  0.663639896558931 0.1 0  0.6726921201956305 0.1 0  0.6815983691630338 0.1 0  0.6903610031396646 0.1 0  0.6989823343332418 0.1 0  0.7074646404270378 0.1 0  0.7158101645005117 0.1 0  0.7240211149852543 0.1 0  0.7320996585612525 0.1 0  0.7400479319727645 0.1 0  0.7478680336617921 0.1 0  0.755562036504958 0.1 0  0.7631319665092091 0.1 0  0.7705798279317605 0.1 0  0.777907588066146 0.1 0  0.7851171851013118 0.1 0  0.7922105226004981 0.1 0  0.7991894774550319 0.1 0  0.8060558928136696 0.1 0  0.812811583201334 0.1 0  0.8194583352091183 0.1 0  0.8259979035038147 0.1 0  0.8324320194413813 0.1 0  0.8387623808293405 0.1 0  0.8449906627004957 0.1 0  0.8511185094880469 0.1 0  0.8571475426008311 0.1 0  0.8630793533568246 0.1 0  0.8689155114558531 0.1 0  0.8746575581239063 0.1 0  0.8803070109173519 0.1 0  0.885865363938836 0.1 0  0.8913340851680313 0.1 0  0.8967146206523592 0.1 0  0.9020083930695622 0.1 0  0.9072167995950768 0.1 0  0.9123412183131177 0.1 0  0.9173830029719022 0.1 0  0.9223434865647732 0.1 0  0.9272239785872722 0.1 0  0.9320257720706087 0.1 0  0.9367501330378739 0.1 0  0.9413983102716995 0.1 0  0.9459715351562933 0.1 0  0.9504710127113115 0.1 0  0.9548979346500661 0.1 0  0.9592534708344373 0.1 0  0.9635387708980176 0.1 0  0.9677549682252325 0.1 0  0.971903177251235 0.1 0  0.9759844952956497 0.1 0  0.9840000000000086 0.1 0  0.987999999999974 0.1 0  0.9919999999999393 0.1 0  0.9959999999999913 0.1 0  1 0.09591793123533533 0  1 0.09133596463859224 0  1 0.08619288104391448 0  1 0.08041996484521211 0  1 0.07394008421771697 0  1 0.06666666567302955 0  1 0.05850252932209174 0  1 0.04933859630113544 0  1 0.03905242821848202 0  1 0.02750659386753798 0  1 0.01454683679239736 0  1.015625 0 0  1.03125 0 0  1.046875 0 0  1.0625 0 0  1.078125 0 0  1.09375 0 0  1.109375 0 0  1.125 0 0  1.140625 0 0  1.15625 0 0  1.171875 0 0  1.1875 0 0  1.203125 0 0  1.21875 0 0  1.234375 0 0  1.25 0 0  1.265625 0 0  1.28125 0 0  1.296875 0 0  1.3125 0 0  1.328125 0 0  1.34375 0 0  1.359375 0 0  1.375 0 0  1.390625 0 0  1.40625 0 0  1.421875 0 0  1.4375 0 0  1.453125 0 0  1.46875 0 0  1.484375 0 0  1.515920751924515 0 0  1.531989369316721 0 0  1.54820720925872 0 0  1.564575665560501 0 0  1.581096138674279 0 0  1.597770029901263 0 0  1.614598783332311 0 0  1.631583831055205 0 0  1.64872661129721 0 0  1.666028606716533 0 0  1.683491276608443 0 0  1.701116134125304 0 0  1.718904673324128 0 0  1.736858414799339 0 0  1.754978895814663 0 0  1.773267661782904 0 0  1.791726281103402 0 0  1.810356325314689 0 0  1.8291593848892 0 0  1.848137076690385 0 0  1.867291007717254 0 0  1.886622833871288 0 0  1.90613418642363 0 0  1.925826753299799 0 0  1.945702199101513 0 0  1.96576223584749 0 0  1.986008569283268 0 0  2.006442931928877 0 0  2.02706707547783 0 0  2.047882750887917 0 0  2.06889175187935 0 0  2.090095860038271 0 0  2.111496891648636 0 0  2.133096679109554 0 0  2.154897066851056 0 0  2.176899916687499 0 0  2.199107102752146 0 0  2.22152053937028 0 0  2.244142122958061 0 0  2.266973806444078 0 0  2.290017523268154 0 0  2.313275249499252 0 0  2.336748971745516 0 0  2.360440702338606 0 0  2.384352453384031 0 0  2.408486280477412 0 0  2.432844240041185 0 0  2.457428414757088 0 0  2.482240901796653 0 0  2.507283830121838 0 0  2.532559332080812 0 0  2.558069568787417 0 0  2.583816724966441 0 0  2.60980299606584 0 0  2.636030600971886 0 0  2.662501790984011 0 0  2.689218818279327 0 0  2.716183964547616 0 0  2.743399548861297 0 0  2.77086788244719 0 0  2.798591312896326 0 0  2.826572223178268 0 0  2.854812990138617 0 0  2.883316031690714 0 0  2.912083780657189 0 0  2.941118704633482 0 0  2.970423276998917 0 0  3 0.02999999999994495 0  3 0.05999999999987042 0  3 0.089999999999783 0  3 0.119999999999701 0  3 0.149999999999619 0  3 0.179999999999692 0  3 0.2099999999997737 0  3 0.2399999999998511 0  3 0.2699999999999185 0  2.970138294777171 0.3 0  2.940375666438236 0.3 0  2.910711782853056 0.3 0  2.881146331305122 0.3 0  2.851678975030285 0.3 0  2.822309388626621 0.3 0  2.793037250095074 0.3 0  2.76386223529133 0.3 0  2.734784017903872 0.3 0  2.705802289276642 0.3 0  2.676916713794697 0.3 0  2.648126987654635 0.3 0  2.619432780406184 0.3 0  2.590833779385199 0.3 0  2.562329669847737 0.3 0  2.533920134950189 0.3 0  2.505604855727852 0.3 0  2.477383539822502 0.3 0  2.449255847639465 0.3 0  2.421221492569094 0.3 0  2.393280152486815 0.3 0  2.36543151914496 0.3 0  2.337675285481809 0.3 0  2.310011142385583 0.3 0  2.282438797441587 0.3 0  2.254957931061538 0.3 0  2.227568248063605 0.3 0  2.200269436651085 0.3 0  2.173061204949961 0.3 0  2.145943251515011 0.3 0  2.118915272469994 0.3 0  2.091976978084957 0.3 0  2.065128060700849 0.3 0  2.038368218849433 0.3 0  2.01169717777258 0.3 0  1.985114624111908 0.3 0  1.958620267850966 0.3 0  1.93221382054972 0.3 0  1.905894991850698 0.3 0  1.879663489459713 0.3 0  1.853519019126419 0.3 0  1.827461291053897 0.3 0  1.801490031354372 0.3 0  1.775604937580312 0.3 0  1.74980572560258 0.3 0  1.724092118631866 0.3 0  1.698463829173586 0.3 0  1.672920575782554 0.3 0  1.647462076974085 0.3 0  1.622088043536933 0.3 0  1.5967981978949 0.3 0  1.571592267767068 0.3 0  1.546469970305736 0.3 0  1.521431023814044 0.3 0  1.496475156230927 0.3 0  1.471602093687753 0.3 0  1.446811560490646 0.3 0  1.422103279101731 0.3 0  1.397476971708191 0.3 0  1.37293238939876 0.3 0  1.348469231419202 0.3 0  1.324087248732772 0.3 0  1.299786165921677 0.3 0  1.275565710847046 0.3 0  1.251425617644257 0.3 0  1.227365618676339 0.3 0  1.203385446174014 0.3 0  1.179484853067473 0.3 0  1.155663548773374 0.3 0  1.131921292279077 0.3 0  1.108257802159295 0.3 0  1.084672829009693 0.3 0  1.061166115303374 0.3 0  1.037737392995421 0.3 0  1.01438640299116 0.3 0  0.991112899770314 0.3 0  0.9679166155523955 0.3 0  0.944797284182564 0.3 0  0.921754678526042 0.3 0  0.8987885143602501 0.3 0  0.8758985548820624 0.3 0  0.8530845484099929 0.3 0  0.8303462351786988 0.3 0  0.8076833651172373 0.3 0  0.7850956864865304 0.3 0  0.7625829601354557 0.3 0  0.7401449314598274 0.3 0  0.717781337993959 0.3 0  0.6954919649675473 0.3 0  0.6732765357561226 0.3 0  0.6511348120768439 0.3 0  0.6290665642016573 0.3 0  0.6070715355430467 0.3 0  0.5851494825775325 0.3 0  0.5633001690203812 0.3 0  0.5415233562273221 0.3 0  0.5198187909431873 0.3 0  0.4981862401387795 0.3 0  0.4766254686134248 0.3 0  0.4551362360485234 0.3 0  0.4337182975262159 0.3 0  0.4123714223228037 0.3 0  0.3910953802377493 0.3 0  0.3698899313205595 0.3 0  0.3487548463710963 0.3 0  0.3276898864081783 0.3 0  0.3066948129116018 0.3 0  0.2857694003037476 0.3 0  0.2649134227095047 0.3 0  0.2441266417321288 0.3 0  0.2234088223399122 0.3 0  0.2027597568977288 0.3 0  0.1821792020676698 0.3 0  0.1616669305402443 0.3 0  0.1412227158799362 0.3 0  0.12084633013886 0.3 0  0.1005375673448281 0.3 0  0.08029618164595353 0.3 0  0.06012194778526769 0.3 0  0.04001466495039718 0.3 0  0.01997408913631205 0.3 0  0 0.2800000000000553 0  0 0.2600000000001105 0  0 0.2400000000001658 0  0 0.2200000000002211 0  0 0.2000000000002764 0  0 0.1800000000002244 0  0 0.1600000000001691 0  0 0.140000000000115 0  0 0.1200000000000564 0  1.13346801534201 0.01255848438672509 0  1.003577645172735 0.09351054173913405 0  0.9777559943702486 0.1034978156913738 0  0.9524533750752109 0.1040889939962738 0  0.9296242411226409 0.1041520033606139 0  0.9046110503652111 0.104409422380137 0  0.8777709649694228 0.1053360318797398 0  0.8483859145648608 0.1061007868330701 0  0.8162363822948977 0.1052777104363292 0  0.7893110024210437 0.1060761643971561 0  0.7587949382612539 0.1067265405088633 0  0.7280603867732535 0.1069398153264939 0  0.6947001989413015 0.1075609887579097 0  0.6590363283767549 0.1076715322596598 0  0.6210028614493155 0.1072970410408442 0  1.1953125 0.01353164693413185 0  1.258193991486058 0.01269648635163345 0  1.3201967268638 0.01407907077719561 0  1.383538555392096 0.01434101079053473 0  1.445312500000001 0.01303671693628424 0  1.508925448095738 0.01398525724792267 0  0.9939176689634008 0.1034638089837981 0  1.120967497222226 0.2796788492172345 0  1.572835902117391 0.01424132418857359 0  1.637573277451887 0.01212536916586023 0  1.709730776795181 0.01466855431023635 0  1.005631976950563 0.07074019818158772 0  1.784944696816299 0.01454708406461822 0  0.5805605730631225 0.1101465090472147 0  1.855621181165637 0.01550931272897607 0  0.5366111276616774 0.1096761308243709 0  1.935200147913231 0.01760344159641829 0  1.214922267975168 0.2799787705802257 0  1.31178773425331 0.2792
[...]
<PointData  Scalars="pressure"> 
<DataArray  type="Float64"  Name="pressure"  format="ascii">-1.1256646346170681e-02  -9.4819943911719662e-01  -2.9633694797994568e-02  -2.1387527222034290e-02  2.4577212045894043e-02  0.0000000000000000e+00  0.0000000000000000e+00  -1.1185519673569871e-02  -1.7182736150027061e-02  -2.3013966268693085e-02  -2.8752163120754487e-02  -3.4398922642543343e-02  -3.9955950400688424e-02  -4.5424835165205069e-02  -5.0806937780785065e-02  -5.6104169940007068e-02  -6.1317897128175959e-02  -6.6449655127843316e-02  -7.1501313137887823e-02  -7.6474376980083469e-02  -8.1370208013213416e-02  -8.6190842743536264e-02  -9.0937859028772772e-02  -9.5612193771559814e-02  -1.0021672888965820e-01  -1.0475256550701259e-01  -1.0922143120409021e-01  -1.1362582422170232e-01  -1.1796705135732380e-01  -1.2224619315263413e-01  -1.2646681284577194e-01  -1.3062982451687288e-01  -1.3473846091155037e-01  -1.3879422120319487e-01  -1.4279809489785544e-01  -1.4675367719449925e-01  -1.5066369907844476e-01  -1.5452974508626374e-01  -1.5835439133392773e-01  -1.6214100649523877e-01  -1.6589109191628540e-01  -1.6960871973570155e-01  -1.7329596476390277e-01  -1.7695670862848048e-01  -1.8059392402479116e-01  -1.8420639109223128e-01  -1.8780532624958760e-01  -1.9138946847072436e-01  -1.9496244054149317e-01  -1.9853064233154957e-01  -2.0209730178434832e-01  -2.0565946237767752e-01  -2.0923242499142078e-01  -2.1281414720247355e-01  -2.1640986013301358e-01  -2.2002512035730074e-01  -2.2366430025006251e-01  -2.2733244046505477e-01  -2.3103629035218948e-01  -2.3478037556653983e-01  -2.3856951793954792e-01  -2.4240878492842904e-01  -2.4631080805058475e-01  -2.5027471026134102e-01  -2.5431045026746080e-01  -2.5842050037366554e-01  -2.6262439196072196e-01  -2.6692469266347524e-01  -2.7131865901394786e-01  -2.7582471591532137e-01  -2.8045994134231444e-01  -2.8521770248127049e-01  -2.9012275266422699e-01  -2.9518411861092964e-01  -3.0040273764495962e-01  -3.0580099406353145e-01  -3.1139212286229007e-01  -3.1719025107048260e-01  -3.2322491944743131e-01  -3.2950170849110655e-01  -3.3603193410095583e-01  -3.4282829066605558e-01  -3.4996374405531816e-01  -3.5743007602618793e-01  -3.6525225485781454e-01  -3.7348137643098134e-01  -3.8214356665311205e-01  -3.9128534361416989e-01  -4.0095287610759950e-01  -4.1123442164521856e-01  -4.2218072754285402e-01  -4.3385074245391214e-01  -4.4638179572077447e-01  -4.5988764861073433e-01  -4.7451285475355931e-01  -4.9045227044079281e-01  -5.0794361233382368e-01  -5.2729855159855410e-01  -5.4894620648463677e-01  -5.7348086339477933e-01  -6.0174441216476471e-01  -6.3490021913349282e-01  -6.7526352744625051e-01  -7.2621281478439981e-01  -7.9251348855689774e-01  -9.1273846600961150e-01  -1.9594388204602755e+00  -1.7631123858744264e+00  -1.2408951866353282e+00  -7.6290938503634254e-01  -1.5270292586468315e-01  -7.8379256387109880e-02  -6.3201340286375057e-02  -4.8954842511499050e-02  -3.9951255012697334e-02  -3.3614955521673831e-02  -2.8971848354164470e-02  -2.5275270464228079e-02  -2.2471169966218511e-02  -2.0792175623676405e-02  -2.0718107332634086e-02  -2.2209524774029887e-02  -2.2019084027129505e-02  -2.0177532549861210e-02  -1.6825309528531840e-02  -1.2055986769262630e-02  -6.0585788886182461e-03  9.5467292111972297e-04  8.7010372516329176e-03  1.6709217584885826e-02  2.4563427619904932e-02  3.1912644275317377e-02  3.8449955523830057e-02  4.3984204446574915e-02  4.8388371549760424e-02  5.1610685758813182e-02  5.3685008262720560e-02  5.4690584373833943e-02  5.4737849407723284e-02  5.3992483573421263e-02  5.2573103978082771e-02  5.0596019460452051e-02  4.8309719981443400e-02  4.5709119244210582e-02  4.3002961896804547e-02  4.0251920891883682e-02  3.7565128999814755e-02  3.4934431185097828e-02  3.2470079970182503e-02  3.0179007193245438e-02  2.8093537838901020e-02  2.6225051649239627e-02  2.3126623661230972e-02  2.1896780379655881e-02  2.0876622410962227e-02  2.0056946041788648e-02  1.9438594693175156e-02  1.9002458947460461e-02  1.8727370377774805e-02  1.8612840150795062e-02  1.8644060400222096e-02  1.8793412437805891e-02  1.9054713875239000e-02  1.9410799082851034e-02  1.9849416525475082e-02  2.0355390119256661e-02  2.0917271106945939e-02  2.1522612920643093e-02  2.2159622349762414e-02  2.2820322285040287e-02  2.3490157516672234e-02  2.4167117903814834e-02  2.4837072035899001e-02  2.5494311344377990e-02  2.6132655297626112e-02  2.6746444607332838e-02  2.7328716583936190e-02  2.7871498993556496e-02  2.8381559161703113e-02  2.8842843457446220e-02  2.9255993306364352e-02  2.9618332206676107e-02  2.9926676856251180e-02  3.0178501585051566e-02  3.0374628104317590e-02  3.0513879288543874e-02  3.0592744217028414e-02  3.0613574141297315e-02  3.0574418116527283e-02  3.0477129426271891e-02  3.0321106537143663e-02  3.0107107279898380e-02  2.9836206492634212e-02  2.9508929998580846e-02  2.9125248589396392e-02  2.8687288708122091e-02  2.8193229006308645e-02  2.7643828076182864e-02  2.7041322197706438e-02  2.6381397104031205e-02  2.5665563664274967e-02  2.4895030746755715e-02  2.4066340974525424e-02  2.3180003678899986e-02  2.2234593300839586e-02  2.1230582350118217e-02  2.0164226711138870e-02  1.9036412113488128e-02  1.7846304248129614e-02  1.6592900486153785e-02  1.5276038831338304e-02  1.3893975758046302e-02  1.2441819112802066e-02  1.0923382032563662e-02  9.3296251912857731e-03  7.6636952131762552e-03  5.9087347828177704e-03  4.0715497495775188e-03  2.1471297993053730e-03  0.0000000000000000e+00  0.0000000000000000e+00  0.0000000000000000e+00  0.0000000000000000e+00  0.0000000000000000e+00  0.0000000000000000e+00  0.0000000000000000e+00  0.0000000000000000e+00  0.0000000000000000e+00  1.5385327673475893e-03  3.1396782007698924e-03  4.7670558874086961e-03  6.3975822743080292e-03  8.0305912649580070e-03  9.6603931357206914e-03  1.1283792858675510e-02  1.2898284040294822e-02  1.4500809512877294e-02  1.6090317445989478e-02  1.7665383216379473e-02  1.9226341052553556e-02  2.0771608738969563e-02  2.2301866211547370e-02  2.3817764265964599e-02  2.5316061892521211e-02  2.6799121337040752e-02  2.8264234907926573e-02  2.9710922994382809e-02  3.1136908783804287e-02  3.2541165243323400e-02  3.3918949305750727e-02  3.5272531945149066e-02  3.6589948356011190e-02  3.7872349618631104e-02  3.9109840837662523e-02  4.0291283426606081e-02  4.1409262840687286e-02  4.2451914360883108e-02  4.3402824747624476e-02  4.4243240546809254e-02  4.4942947962886760e-02  4.5498760539086788e-02  4.5875796212733196e-02  4.6024043303799854e-02  4.5927960035544640e-02  4.5556916773643749e-02  4.4869928599901319e-02  4.3827052130548459e-02  4.2417409613920772e-02  4.0592720360119766e-02  3.8338808066859534e-02  3.5650492603656957e-02  3.2512534234114585e-02  2.8927861025855442e-02  2.4916885596795751e-02  2.0494854831689311e-02  1.5694472041052336e-02  1.0554298287584783e-02  5.1401259654407722e-03  -5.0976674151307743e-04  -6.3395908207789795e-03  -1.2291878738938703e-02  -1.8322574605476160e-02  -2.4382728275267933e-02  -3.0430207583896845e-02  -3.6440674793343265e-02  -4.2405487451640113e-02  -4.8288408138521761e-02  -5.4101651628020039e-02  -5.9860912183234458e-02  -6.5576750828968133e-02  -7.1282130837926561e-02  -7.7012108857695799e-02  -8.2814346402952418e-02  -8.8743437522484286e-02  -9.4861485576515789e-02  -1.0124792359658404e-01  -1.0797157612926084e-01  -1.1512183415950442e-01  -1.2279578505441890e-01  -1.3105867074318869e-01  -1.3994678000071070e-01  -1.4946643250641814e-01  -1.5941922051510049e-01  -1.6961374622923486e-01  -1.7963427942941307e-01  -1.8906145122121717e-01  -1.9751169168414376e-01  -2.0479054442387953e-01  -2.1034805378897559e-01  -2.1434423497649760e-01  -2.1669444196559523e-01  -2.1783424586599323e-01  -2.1765284966535806e-01  -2.1626406244116048e-01  -2.1401458574036941e-01  -2.1099164278603391e-01  -2.0725781255295381e-01  -2.0301162772175407e-01  -1.9829091098623833e-01  -1.9326439105299309e-01  -1.8795682161644869e-01  -1.8239088345799276e-01  -1.7667843207687600e-01  -1.7083162257718015e-01  -1.6486242083911912e-01  -1.5880585987119394e-01  -1.5269362962537425e-01  -1.4653776844221034e-01  -1.4034419298597525e-01  -1.3412890748484255e-01  -1.2789449971905031e-01  -1.2165780704464021e-01  -1.1541593238695637e-01  -1.0917680764841638e-01  -1.0294387717571749e-01  -9.6718694563363669e-02  -9.0505015406335834e-02  -8.4303975584588589e-02  -7.8116582892698044e-02  -7.1944375620566756e-02  -6.5788278445325837e-02  -5.9648911661084908e-02  -5.3526775342491388e-02  -4.7422702615957234e-02  -4.1336540927773120e-02  -3.5268752611706790e-02  -2.9219654831936122e-02  -2.3189248918208009e-02  -1.7177842953760999e-02  -1.1185795430517131e-02  -1.1188755281092866e-02  -1.1195977150935560e-02  -1.1207308891564755e-02  -1.1221070699418131e-02  -1.1234846718239173e-02  -1.1246202201495078e-02  -1.1253472295842200e-02  -1.1256421638806444e-02  1.2391656333650868e-02  -7.6107386852912157e-02  -1.0097574033689756e+00  -5.9127833609260305e-01  -4.8473754092632498e-01  -4.1801653196411298e-01  -3.7075958839028117e-01  -3.3381694197553236e-01  -3.0360793904588113e-01  -2.8361428079939555e-01  -2.6471386924831858e-01  -2.4848013928695983e-01  -2.3306416647172579e-01  -2.1831500170551074e-01  -2.0393737001701409e-01  4.0174111724263356e-02  5.3319877712707180e-02  5.0943466773999649e-02  4.1209315891761147e-02  3.1288414392578928e-02  2.3904084614739203e-02  -6.2740820574037415e-01  -1.1788830439528310e-01  1.9979094305061919e-02  1.8828885622879918e-02  1.9835273871055263e-02  -3.6553487668105171e-02  2.2090480170981256e-02  -1.8969643525852659e-01  2.4550651862014567e-02  -1.7499189278813423e-01  2.7101406762590270e-02  -9.1617980237698765e-02  -6.8382571947394707e-02  2.9146314599167621e-02  -4.5503892329687885e-02  -1.6026611843977756e-01  -1.5572781664393333e-02  3.0265386117520946e-02  -1.4479041370894746e-01  -8.8335072942880375e-03  3.0562529213113386e-02  1.2741342203833370e-02  -1.4407220224901543e-01  -1.2899635105370311e-01  2.9915164356927176e-02  3.6590490609892626e-02  -1.1123889870335418e-01  4.2691880932675820e-02  2.8345254981396690e-02  4.5454691909610066e-02  -9.3803079444648996e-02  -1.7293161682888714e-01  2.5972513304329644e-02  4.5459104624402086e-02  -2.0000136298785337e-01  4.3605567718878580e-02  2.2618067883027379e-02  -2.1489192972681484e-01  -7.3511941913102632e-02  -5.9460337498752167e-02  2.6516613512648217e-02  1.9499805276218220e-02  1.5690923950378875e-02  4.0719781179169863e-02  -2.1670797475800449e-01  3.5816004953524189e-02  -7.0486325463579991e-01  -2.0528503564972625e-01  3.1846870637481477e-02  -4.1985328521861709e-02  -1.9057563467917310e-01  1.1593287459217406e-02  2.6137943061011228e-02  -1.7361331355605700e-01  -1.4944242813805564e-01  2.1600867731326051e-02  -1.1853069303599538e-01  1.6940565472782550e-02  -9.9773168049455088e-02  -8.1103101618574147e-02  1.2154056480185490e-02  -4.9581001476318838e-02  1.5799807502418375e-03  -1.6795306157543162e-02  -2.4388371741462286e-02  7.3965824363527782e-03  6.5980193352385957e-03  -3.1793165179952371e-02  -5.2074900312546364e-02  -1.8155230357556704e-02  -1.0409675686773195e-01  -2.1227410984076964e-01  -1.6227866787927500e-01  -1.3754752066385695e-01  -3.1524274217136918e-02  -4.2475264158927887e-03  -3.3372719923449104e-02  -5.6910251141176954e-02  -7.9717407469471729e-02  -8.3486525170479525e-02  3.8430203472974434e-02  -1.0277820553827256e-01  -6.8902583506004436e-02  2.9030488349227113e-02  2.4406006867356691e-02  -1.2068046605999416e-01  2.7197958459243079e-02  2.9250066846881809e-02  -1.3652107410793263e-01  3.0354710329370042e-02  3.0534141199703106e-02  2.9741655800617200e-02  2.8245450974815754e-02  2.1571437680150737e-02  -1.5261435849707658e-01  2.5860878129625234e-02  2.3316915708385236e-02  -1.6775868331102889e-01  2.0873527117777332e-02  1.9149356707812058e-02  1.9111441923633385e-02  1.5023751934515309e-03  -1.8283852882156773e-01  -1.9628236200147076e-01  -1.6479351387584298e-02  -2.1072611537304223e-01  -2.2562072151232729e-01  -2.4065762647539404e-01  -2.5675809450574849e-01  -2.7396986072195562e-01  -2.9281326088210258e-01  2.7762875041173033e-02  -3.2076529964065392e-01  -3.5443331793323779e-01  -3.9727924099989015e-01  4.8980519471201196e-02  -4.5532266024020179e-01  4.6619294013240713e-02  5.3525034155168461e-02  3.6458315515336480e-02  2.7219708174464976e-02  -5.4137262290929633e-01  -1.4599664976709996e+00  1.4719885573319736e-03  -1.6931881074177549e-02  3.9711457666231388e-03  -2.1364058453025928e-02  -1.6240136829135162e-02  1.6192455796324447e-03  -2.0281203730798173e-02  -2.0367834577218084e-02  -1.9761968530042529e-02  -1.7589143389685303e-02  -2.0004601947670130e-02  -1.7669344442780923e-02  -2.0238706700102690e-02  -1.7129879734306942e-02  -1.9760372238178399e-02  -1.6173569985213403e-02  -1.8733307747311741e-02  -1.5185450105550570e-02  -1.8403402753229357e-02  -1.4861608630188464e-02  -2.0410049776094574e-02  -1.6842466736982267e-02  -2.5752893067015781e-02  -2.2109333613473132e-02  -3.4692135504575318e-02  -3.0853113146669137e-02  -4.6443794689097859e-02  -4.1331328921522394e-02  -5.2832352670644532e-02  -2.4034808307856332e-02  -3.6783726272524665e-02  -6.5112765723956439e-02  -7.3705559451810163e-02  -2.1024078616375161e-02  -3.2828388236591934e-02  -1.6316611236016215e-02  -3.0167039109518661e-02  -1.2452893969371345e-02  -2.8903659321858250e-02  -9.4444430769308804e-03  -2.5627299287656006e-02  -6.7647208049703153e-03  -2.6747097501707399e-02  -6.2779541656891053e-03  -2.3702227273257319e-02  -5.1537737717040006e-03  -2.3295435061434472e-02  -4.8941705814478584e-03  -2.2959592646527659e-02  -5.0977002914431415e-03  -2.3075304642494399e-02  -5.6062440095272790e-03  -2.2660233217688876e-02  -6.2285734418479118e-03  -2.2678765046257779e-02  -6.9245117633196917e-03  -2.2172227388378853e-02  -8.4630887872000279e-03  -2.1654738990256675e-02  -6.8721351165908062e-03  -8.5399015784244581e-02  -9.8127339277023995e-02  -2.1380908126310980e-02  -8.3675010767950697e-03  -1.9788319304586532e-02  -7.9121111810909698e-03  -1.8906636692498223e-02  -7.5332075828820795e-03  -1.7276780451820715e-02  -6.7303881879378080e-03  -4.9272453041174995e-02  -1.5246323064885409e-02  -5.6243978406203049e-03  -1.4143350241890895e-02  -4.4250890831329850e-03  -1.0508827075566751e-02  -2.5542026783703566e-03  -1.0584236999751520e-01  -1.2393945435512976e-01  -2.3024088776531643e-02  -7.9194026550590373e-03  -6.1393054425768259e-04  -4.9632659665463149e-03  1.5144558002240652e-03  -1.9582976378589075e-03  3.8102862831595726e-03  -9.1289252199662441e-02  1.1919373098770438e-03  6.2404442434922667e-03  -4.5564690458671203e-02  4.3979410449793014e-03  8.7474597748400454e-03  7.6215972706857827e-03  1.1328549004982258e-02  1.0875273039850098e-02  1.3882085984136447e-02  -1.0644812219127978e-02  -4.1429598226117574e-02  1.4029423609020758e-02  1.6457053039454401e-02  -1.2514234608670102e-01  -1.4373432775422645e-01  -1.1088215786484200e-01  -3.8469250459340160e-02  1.7117330989715237e-02  1.9005412433210109e-02  2.0102651903939544e-02  2.1456389376164120e-02  2.2938883623118397e-02  2.3735008325940218e-02  4.9276040484030285e-03  1.8482522932347829e-02  9.0084170018685343e-03  3.0675208525669968e-03  2.5604675188908389e-02  2.5902936546296978e-02  2.4038765977364332e-02  2.5733852865559344e-02  2.7909918921981421e-02  2.7312395456671849e-02  2.9737012812803523e-02  2.8806161313500129e-02  3.1418560891699421e-02  3.0227601490392140e-02  3.2924840301028449e-02  3.1479202425121186e-02  3.4242096763230589e-02  3.2591910859720734e-02  3.5442579080566305e-02  3.3586130227588946e-02  3.6400793986105240e-02  3.4312321173909970e-02  3.7190510532015567e-02  3.5025056419000958e-02  3.7845335475353944e-02  3.5584119257834973e-02  3.8422392597782205e-02  3.6045632788246261e-02  3.2119749634807451e-03  -3.5585234802220783e-02  3.8789904642940111e-02  3.6359424582272058e-02  3.8948958480026996e-02  3.6577697836115301e-02  3.7162214653991776e-03  1.0717945798757659e-02  3.9002054518606125e-02  3.6659490795086735e-02  1.2313893748325205e-02  -2.8784758968439211e-02  -1.3979806594845168e-01  -1.5933620741022569e-01  -1.7197657426269536e-01  -1.8504422157667677e-01  -2.0685716961696315e-01  -2.1412438613132084e-01  -2.5057874359667420e-01  -2.4687770581199425e-01  -2.8684854663305348e-01  -2.7686160187407149e-01  -3.2449067586418745e-01  -3.0359997091409424e-01  -3.5000735636581110e-01  -3.2353256280813386e-01  -3.6674464471674223e-01  -3.3732993274033068e-01  -3.7447808088954310e-01  -3.4445397001260170e-01  -3.7556137707101767e-01  -3.4629648568224014e-01  -3.7180205233596891e-01  -3.4450241715006913e-01  -3.6537578713708246e-01  -3.4049722857641818e-01  -3.5741781206168971e-01  -3.3517866793837564e-01  -3.4764034425448825e-01  -3.2739186298337297e-01  -3.1347828252705834e-01  -3.0929711007449090e-01  -3.2112654378405242e-01  -3.0474431616739106e-01  -3.1581994942773051e-01  -3.0016979511917641e-01  -3.0865552038571331e-01  -2.9482867037995664e-01  -2.9206213190760633e-01  -2.9307859797033808e-01  -3.1908612907816419e-01  -3.0192483632135292e-01  -2.8941150951575279e-01  -2.8085969527381671e-01  -2.7696763387579520e-01  -2.8399278044808829e-01  -2.7313624131255165e-01  -2.7849355616700633e-01  -2.6880738354559985e-01  -2.7301089652951271e-01  -2.6398073863316840e-01  -2.6513896265498038e-01  -2.3292417111665623e-01  -3.8119189350636035e-01  -2.6764078180751028e-01  -2.5930010036262191e-01  -2.5504909413335708e-01  -2.5098320473847247e-01  -2.5465757332184669e-01  -2.4713210266620333e-01  -2.4988451351953633e-01  -2.4301655462950994e-01  -4.1294418074807027e-01  -2.4305105051645073e-01  -2.4513911118220286e-01  -2.3892289327572508e-01  -4.0229257419103504e-01  -2.4054967059809249e-01  -2.3460733044677717e-01  -2.3295055492611424e-01  -2.2867376740565387e-01  -2.3022293244002789e-01  -2.2459245638712313e-01  -2.2267463522515007e-01  -2.1899692789929523e-01  -2.2048677925010748e-01  -2.1520946458793930e-01  -2.1630202014273561e-01  -2.1123203543495936e-01  -2.1003348860208385e-01  -2.0632316897117814e-01  -2.0714037916919936e-01  -2.0248038985617933e-01  -2.0301598489980213e-01  -1.9853503146673801e-01  -1.9025202481708303e-01  -3.3173875331244168e-01  -3.7940485773307420e-01  -1.9891591151701241e-01  -1.9455255087084214e-01  -1.9409987336701465e-01  -1.9011984083944319e-01  -1.9035125968185962e-01  -1.8608395867386923e-01  -1.8964868079987701e-01  3.9032968940121648e-02  3.6676436992764037e-02  3.8903924502248680e-02  3.6572120197568940e-02  3.8650067156957887e-02  3.6368881466328155e-02  -2.8888608529771398e-01  -1.5362788083447562e-02  -2.2367205174083079e-02  -1.8607845341024409e-01  -1.8199755044425697e-01  -3.1437142032410387e-01  2.9848665731202911e-02  3.3532444286438583e-02  2.3965613841093174e-02  3.8289903472724714e-02  3.6080878128150654e-02  3.4276580938171465e-02  3.4066156588143062e-02  3.5710096004295692e-02  3.3762798955257536e-02  3.5244969430416724e-02  3.3376775617429778e-02  3.4718576077963574e-02  3.2945613618508111e-02  3.4117357073488307e-02  3.2433080636219941e-02  3.3460222209944435e-02  3.1861103173599567e-02  3.2758679283224575e-02  3.1220062249227326e-02  3.1982531843231320e-02  3.0523038328873087e-02  3.1147607620055386e-02  2.9760282266440556e-02  3.0239509169884569e-02  2.8938689727013630e-02  2.9289803452679637e-02  2.8067489038518370e-02  2.8294809548497876e-02  2.7128191750682065e-02  2.7245563045424154e-02  2.6151469080185025e-02  2.6106762833676144e-02  2.5098347552118875e-02  2.4980126615649932e-02  2.4014460369384073e-02  3.4410630025450500e-02  -2.0519392380146961e-01  -2.5737458585212036e-01  -1.8171079593792980e-01  -1.7774687470967154e-01  -1.7796925667848340e-01  -1.7366296983949572e-01  -1.7391151918136796e-01  -1.6958734619156465e-01  -1.6932905991111472e-01  -1.6530050163464524e-01  -1.6480955121106114e-01  -1.6087426523143661e-01  -1.6127410706268477e-01  -1.5690582017186203e-01  -1.5655617591466864e-01  -1.5252850111088789e-01 