<?xml version="1.0"?>
<VTKFile type="UnstructuredGrid"  version="0.1"  >
<UnstructuredGrid>
<Piece  NumberOfPoints="2886" NumberOfCells="5412">
<Points>
<DataArray  type="Float64"  NumberOfComponents="3"  format="ascii">0 0.1 0  0.98 0.1 0  1 0.1 0  1 0 0  1.5 0 0  3 0 0  3 0.3 0  0 0.3 0  0.01975375321854102 0.1 0  0.03918897458218897 0.1 0  0.05831079002627837 0.1 0  0.07712425666319796 0.1 0  0.0956343475259058 0.1 0  0.1138459546796227 0.1 0  0.1317638870668193 0.1 0  0.1493928840275937 0.1 0  0.1667376092280033 0.1 0  0.1838026357802664 0.1 0  0.2005924801287244 0.1 0  0.2171115811543574 0.1 0  0.2333643037107681 0.1 0  0.2493549444060462 0.1 0  0.2650877293306821 0.1 0  0.2805668058011438 0.1 0  0.2957962848620976 0.1 0  0.3107801766802674 0.1 0  0.3255224447361181 0.1 0  0.3400269848175519 0.1 0  0.3542976327080778 0.1 0  0.3683381609158136 0.1 0  0.3821522744564845 0.1 0  0.3957436316838916 0.1 0  0.4091158196437086 0.1 0  0.4222723742184605 0.1 0  0.4352167733293057 0.1 0  0.4479524348643424 0.1 0  0.4604827295467524 0.1 0  0.4728109659990664 0.1 0  0.4849404035409129 0.1 0  0.4968742471455402 0.1 0  0.508615651843175 0.1 0  0.520167721130924 0.1 0  0.5315335063628542 0.1 0  0.5427160117228604 0.1 0  0.5537181940261912 0.1 0  0.564542961924507 0.1 0  0.575193173270606 0.1 0  0.5856716438765114 0.1 0  0.5959811458006617 0.1 0  0.6061243988680743 0.1 0  0.6161040893285659 0.1 0  0.6259228503970299 0.1 0  0.6355832809287655 0.1 0  0.6450879281079505 0.1 0  0.6544393102991295 0.1 0  0.663639896558931 0.1 0  0.6726921201956305 0.1 0  0.6815983691630338 0.1 0  0.6903610031396646 0.1 0  0.6989823343332418 0.1 0  0.7074646404270378 0.1 0  0.7158101645005117 0.1 0  0.7240211149852543 0.1 0  0.7320996585612525 0.1 0  0.7400479319727645 0.1 0  0.7478680336617921 0.1 0  0.755562036504958 0.1 0  0.7631319665092091 0.1 0  0.7705798279317605 0.1 0  0.777907588066146 0.1 0  0.7851171851013118 0.1 0  0.7922105226004981 0.1 0  0.7991894774550319 0.1 0  0.8060558928136696 0.1 0  0.812811583201334 0.1 0  0.8194583352091183 0.1 0  0.8259979035038147 0.1 0  0.8324320194413813 0.1 0  0.8387623808293405 0.1 0  0.8449906627004957 0.1 0  0.8511185094880469 0.1 0  0.8571475426008311 0.1 0  0.8630793533568246 0.1 0  0.8689155114558531 0.1 0  0.8746575581239063 0.1 0  0.8803070109173519 0.1 0  0.885865363938836 0.1 0  0.8913340851680313 0.1 0  0.8967146206523592 0.1 0  0.9020083930695622 0.1 0  0.9072167995950768 0.1 0  0.9123412183131177 0.1 0  0.9173830029719022 0.1 0  0.9223434865647732 0.1 0  0.9272239785872722 0.1 0  0.9320257720706087 0.1 0  0.9367501330378739 0.1 0  0.9413983102716995 0.1 0  0.9459715351562933 0.1 0  0.9504710127113115 0.1 0  0.9548979346500661 0.1 0  0.9592534708344373 0.1 0  0.9635387708980176 0.1 0  0.9677549682252325 0.1 0  0.971903177251235 0.1 0  0.9759844952956497 0.1 0  0.9840000000000086 0.1 0  0.987999999999974 0.1 0  0.9919999999999393 0.1 0  0.9959999999999913 0.1 0  1 0.09591793123533533 0  1 0.09133596463859224 0  1 0.08619288104391448 0  1 0.08041996484521211 0  1 0.07394008421771697 0  1 0.06666666567302955 0  1 0.05850252932209174 0  1 0.04933859630113544 0  1 0.03905242821848202 0  1 0.02750659386753798 0  1 0.01454683679239736 0  1.015625 0 0  1.03125 0 0  1.046875 0 0  1.0625 0 0  1.078125 0 0  1.09375 0 0  1.109375 0 0  1.125 0 0  1.140625 0 0  1.15625 0 0  1.171875 0 0  1.1875 0 0  1.203125 0 0  1.21875 0 0  1.234375 0 0  1.25 0 0  1.265625 0 0  1.28125 0 0  1.296875 0 0  1.3125 0 0  1.328125 0 0  1.34375 0 0  1.359375 0 0  1.375 0 0  1.390625 0 0  1.40625 0 0  1.421875 0 0  1.4375 0 0  1.453125 0 0  1.46875 0 0  1.484375 0 0  1.515920751924515 0 0  1.531989369316721 0 0  1.54820720925872 0 0  1.564575665560501 0 0  1.581096138674279 0 0  1.597770029901263 0 0  1.614598783332311 0 0  1.631583831055205 0 0  1.64872661129721 0 0  1.666028606716533 0 0  1.683491276608443 0 0  1.701116134125304 0 0  1.718904673324128 0 0  1.736858414799339 0 0  1.754978895814663 0 0  1.773267661782904 0 0  1.791726281103402 0 0  1.810356325314689 0 0  1.8291593848892 0 0  1.848137076690385 0 0  1.867291007717254 0 0  1.886622833871288 0 0  1.90613418642363 0 0  1.925826753299799 0 0  1.945702199101513 0 0  1.96576223584749 0 0  1.986008569283268 0 0  2.006442931928877 0 0  2.02706707547783 0 0  2.047882750887917 0 0  2.06889175187935 0 0  2.090095860038271 0 0  2.111496891648636 0 0  2.133096679109554 0 0  2.154897066851056 0 0  2.176899916687499 0 0  2.199107102752146 0 0  2.22152053937028 0 0  2.244142122958061 0 0  2.266973806444078 0 0  2.290017523268154 0 0  2.313275249499252 0 0  2.336748971745516 0 0  2.360440702338606 0 0  2.384352453384031 0 0  2.408486280477412 0 0  2.432844240041185 0 0  2.457428414757088 0 0  2.482240901796653 0 0  2.507283830121838 0 0  2.532559332080812 0 0  2.558069568787417 0 0  2.583816724966441 0 0  2.60980299606584 0 0  2.636030600971886 0 0  2.662501790984011 0 0  2.689218818279327 0 0  2.716183964547616 0 0  2.743399548861297 0 0  2.77086788244719 0 0  2.798591312896326 0 0  2.826572223178268 0 0  2.854812990138617 0 0  2.883316031690714 0 0  2.912083780657189 0 0  2.941118704633482 0 0  2.970423276998917 0 0  3 0.02999999999994495 0  3 0.05999999999987042 0  3 0.089999999999783 0  3 0.119999999999701 0  3 0.149999999999619 0  3 0.179999999999692 0  3 0.2099999999997737 0  3 0.2399999999998511 0  3 0.2699999999999185 0  2.970138294777171 0.3 0  2.940375666438236 0.3 0  2.910711782853056 0.3 0  2.881146331305122 0.3 0  2.851678975030285 0.3 0  2.822309388626621 0.3 0  2.793037250095074 0.3 0  2.76386223529133 0.3 0  2.734784017903872 0.3 0  2.705802289276642 0.3 0  2.676916713794697 0.3 0  2.648126987654635 0.3 0  2.619432780406184 0.3 0  2.590833779385199 0.3 0  2.562329669847737 0.3 0  2.533920134950189 0.3 0  2.505604855727852 0.3 0  2.477383539822502 0.3 0  2.449255847639465 0.3 0  2.421221492569094 0.3 0  2.393280152486815 0.3 0  2.36543151914496 0.3 0  2.337675285481809 0.3 0  2.310011142385583 0.3 0  2.282438797441587 0.3 0  2.254957931061538 0.3 0  2.227568248063605 0.3 0  2.200269436651085 0.3 0  2.173061204949961 0.3 0  2.145943251515011 0.3 0  2.118915272469994 0.3 0  2.091976978084957 0.3 0  2.065128060700849 0.3 0  2.038368218849433 0.3 0  2.01169717777258 0.3 0  1.985114624111908 0.3 0  1.958620267850966 0.3 0  1.93221382054972 0.3 0  1.905894991850698 0.3 0  1.879663489459713 0.3 0  1.853519019126419 0.3 0  1.827461291053897 0.3 0  1.801490031354372 0.3 0  1.775604937580312 0.3 0  1.74980572560258 0.3 0  1.724092118631866 0.3 0  1.698463829173586 0.3 0  1.672920575782554 0.3 0  1.647462076974085 0.3 0  1.622088043536933 0.3 0  1.5967981978949 0.3 0  1.571592267767068 0.3 0  1.546469970305736 0.3 0  1.521431023814044 0.3 0  1.496475156230927 0.3 0  1.471602093687753 0.3 0  1.446811560490646 0.3 0  1.422103279101731 0.3 0  1.397476971708191 0.3 0  1.37293238939876 0.3 0  1.348469231419202 0.3 0  1.324087248732772 0.3 0  1.299786165921677 0.3 0  1.275565710847046 0.3 0  1.251425617644257 0.3 0  1.227365618676339 0.3 0  1.203385446174014 0.3 0  1.179484853067473 0.3 0  1.155663548773374 0.3 0  1.131921292279077 0.3 0  1.108257802159295 0.3 0  1.084672829009693 0.3 0  1.061166115303374 0.3 0  1.037737392995421 0.3 0  1.01438640299116 0.3 0  0.991112899770314 0.3 0  0.9679166155523955 0.3 0  0.944797284182564 0.3 0  0.921754678526042 0.3 0  0.8987885143602501 0.3 0  0.8758985548820624 0.3 0  0.8530845484099929 0.3 0  0.8303462351786988 0.3 0  0.8076833651172373 0.3 0  0.7850956864865304 0.3 0  0.7625829601354557 0.3 0  0.7401449314598274 0.3 0  0.717781337993959 0.3 0  0.6954919649675473 0.3 0  0.6732765357561226 0.3 0  0.6511348120768439 0.3 0  0.6290665642016573 0.3 0  0.6070715355430467 0.3 0  0.5851494825775325 0.3 0  0.5633001690203812 0.3 0  0.5415233562273221 0.3 0  0.5198187909431873 0.3 0  0.4981862401387795 0.3 0  0.4766254686134248 0.3 0  0.4551362360485234 0.3 0  0.4337182975262159 0.3 0  0.4123714223228037 0.3 0  0.3910953802377493 0.3 0  0.3698899313205595 0.3 0  0.3487548463710963 0.3 0  0.3276898864081783 0.3 0  0.3066948129116018 0.3 0  0.2857694003037476 0.3 0  0.2649134227095047 0.3 0  0.2441266417321288 0.3 0  0.2234088223399122 0.3 0  0.2027597568977288 0.3 0  0.1821792020676698 0.3 0  0.1616669305402443 0.3 0  0.1412227158799362 0.3 0  0.12084633013886 0.3 0  0.1005375673448281 0.3 0  0.08029618164595353 0.3 0  0.06012194778526769 0.3 0  0.04001466495039718 0.3 0  0.01997408913631205 0.3 0  0 0.2800000000000553 0  0 0.2600000000001105 0  0 0.2400000000001658 0  0 0.2200000000002211 0  0 0.2000000000002764 0  0 0.1800000000002244 0  0 0.1600000000001691 0  0 0.140000000000115 0  0 0.1200000000000564 0  1.13346801534201 0.01255848438672509 0  1.003577645172735 0.09351054173913405 0  0.9777559943702486 0.1034978156913738 0  0.9524533750752109 0.1040889939962738 0  0.9296242411226409 0.1041520033606139 0  0.9046110503652111 0.104409422380137 0  0.8777709649694228 0.1053360318797398 0  0.8483859145648608 0.1061007868330701 0  0.8162363822948977 0.1052777104363292 0  0.7893110024210437 0.1060761643971561 0  0.7587949382612539 0.1067265405088633 0  0.7280603867732535 0.1069398153264939 0  0.6947001989413015 0.1075609887579097 0  0.6590363283767549 0.1076715322596598 0  0.6210028614493155 0.1072970410408442 0  1.1953125 0.01353164693413185 0  1.258193991486058 0.01269648635163345 0  1.3201967268638 0.01407907077719561 0  1.383538555392096 0.01434101079053473 0  1.445312500000001 0.01303671693628424 0  1.508925448095738 0.01398525724792267 0  0.9939176689634008 0.1034638089837981 0  1.120967497222226 0.2796788492172345 0  1.572835902117391 0.01424132418857359 0  1.637573277451887 0.01212536916586023 0  1.709730776795181 0.01466855431023635 0  1.005631976950563 0.07074019818158772 0  1.784944696816299 0.01454708406461822 0  0.5805605730631225 0.1101465090472147 0  1.855621181165637 0.01550931272897607 0  0.5366111276616774 0.1096761308243709 0  1.935200147913231 0.01760344159641829 0  1.214922267975168 0.2799787705802257 0  1.31178773425331 0.2792
[...]
<PointData  Scalars="pressure"> 
<DataArray  type="Float64"  Name="pressure"  format="ascii">6.2296472824969092e-03  -3.5002906574593812e-01  -1.6028348095457140e-01  -1.3109835540451006e-01  -6.1645814207109940e-02  0.0000000000000000e+00  0.0000000000000000e+00  6.2519754872877899e-03  3.0353002888759467e-04  -5.5272607531272914e-03  -1.1264359345270692e-02  -1.6909317614422867e-02  -2.2463696988135183e-02  -2.7929020647627614e-02  -3.3306699016715471e-02  -3.8598332970150522e-02  -4.3805313923841550e-02  -4.8929066351715157e-02  -5.3971158132564430e-02  -5.8932971489281664e-02  -6.3815839547664052e-02  -6.8621340691830818e-02  -7.3350874631317717e-02  -7.8005544488741807e-02  -8.2587231628509547e-02  -8.7097101326179274e-02  -9.1536557764888865e-02  -9.5907283307078789e-02  -1.0021053968855481e-01  -1.0444735568488973e-01  -1.0861988322991252e-01  -1.1272911523503577e-01  -1.1677698073354049e-01  -1.2076484315857221e-01  -1.2469353376329588e-01  -1.2856526256076536e-01  -1.3238168079720783e-01  -1.3614403822773893e-01  -1.3985396640854000e-01  -1.4351338778097911e-01  -1.4712356649086530e-01  -1.5068662395192814e-01  -1.5420393162901280e-01  -1.5767770478756421e-01  -1.6110984746358661e-01  -1.6449988429307910e-01  -1.6785321640630183e-01  -1.7117018086633928e-01  -1.7445184848446785e-01  -1.7770217825907156e-01  -1.8092291241554026e-01  -1.8411230690695840e-01  -1.8727814453336331e-01  -1.9041961074722716e-01  -1.9353914603198644e-01  -1.9663935146071282e-01  -1.9972260333256556e-01  -2.0279109355055344e-01  -2.0584776937989549e-01  -2.0889500720967283e-01  -2.1193486739313905e-01  -2.1496942890753545e-01  -2.1800407843081637e-01  -2.2103854249869789e-01  -2.2407683405339832e-01  -2.2712050126404243e-01  -2.3017545767156880e-01  -2.3324499457602249e-01  -2.3632650143097006e-01  -2.3942696702087748e-01  -2.4255283680270398e-01  -2.4570146935171244e-01  -2.4888064634715418e-01  -2.5209490080138758e-01  -2.5534289869738885e-01  -2.5863207249771342e-01  -2.6196639584199904e-01  -2.6534997744030558e-01  -2.6879296012083048e-01  -2.7229359125160080e-01  -2.7585821726523707e-01  -2.7948501869985293e-01  -2.8319981509379649e-01  -2.8699713184838771e-01  -2.9088191023058485e-01  -2.9486890658837883e-01  -2.9896309274036764e-01  -3.0317522979929590e-01  -3.0751595014796462e-01  -3.1200758402161810e-01  -3.1665943005032499e-01  -3.2148342350376308e-01  -3.2651131654461074e-01  -3.3176647402397630e-01  -3.3727895505210992e-01  -3.4308837382409241e-01  -3.4924101925841905e-01  -3.5579784068096038e-01  -3.6283836685166737e-01  -3.7047021635901461e-01  -3.7884471803135111e-01  -3.8812933144752854e-01  -3.9873663946345861e-01  -4.1128373410635005e-01  -4.2323605104065715e-01  -4.6241265270657617e-01  -6.6330419441527810e-01  -7.2668652255461441e-01  -6.1981349033444155e-01  -5.2691907652957892e-01  -1.6334171502186409e-01  -1.5217420895156761e-01  -1.4583789173035921e-01  -1.4092625319881505e-01  -1.3752660611701037e-01  -1.3500222719039226e-01  -1.3313788912781510e-01  -1.3174940330824397e-01  -1.3085933622103085e-01  -1.3052473185169558e-01  -1.3078472507742725e-01  -1.3149109492340308e-01  -1.3170291924324168e-01  -1.3131109376201849e-01  -1.3044498700948881e-01  -1.2921310294136526e-01  -1.2769149518589962e-01  -1.2590419957323248e-01  -1.2387381161503422e-01  -1.2165495615045521e-01  -1.1928535777643731e-01  -1.1679139506196813e-01  -1.1420145469245244e-01  -1.1153778915713229e-01  -1.0882165786715794e-01  -1.0607015381476859e-01  -1.0329594632214059e-01  -1.0050971632983430e-01  -9.7722785303330478e-02  -9.4942078351338416e-02  -9.2169253066341883e-02  -8.9425202447569227e-02  -8.6695501347669374e-02  -8.4003273293483199e-02  -8.1342040875738972e-02  -7.8724948779598444e-02  -7.6137092287696675e-02  -7.3610852115467515e-02  -7.1125255396319156e-02  -6.8688469930895960e-02  -6.6299000536952632e-02  -6.3953295447178884e-02  -5.9327188118647567e-02  -5.7002719886385222e-02  -5.4667376286123490e-02  -5.2300139400432738e-02  -4.9871806715566243e-02  -4.7393675110712262e-02  -4.4818697386789487e-02  -4.2109534945834054e-02  -3.9269155631713341e-02  -3.6303264189090641e-02  -3.3167551496072076e-02  -2.9881707416595172e-02  -2.6453752557861233e-02  -2.2905892220560192e-02  -1.9270428350620622e-02  -1.5589311312859152e-02  -1.1917260265994142e-02  -8.3258428474025249e-03  -4.8466958011689782e-03  -1.5801897124287354e-03  1.4359342874199429e-03  4.1471757038041247e-03  6.5028897569034700e-03  8.4810760358673288e-03  1.0058223807558313e-02  1.1249737557272536e-02  1.2067272294879429e-02  1.2519607146158011e-02  1.2661211785638870e-02  1.2531326029332761e-02  1.2180462540343363e-02  1.1677139343154818e-02  1.1085161623365994e-02  1.0462798153445266e-02  9.8563087316057216e-03  9.3192128482021651e-03  8.8846314973609151e-03  8.5777674960263017e-03  8.4102317572943598e-03  8.3796584203743568e-03  8.4720979426528113e-03  8.6640141497843822e-03  8.9248066365394604e-03  9.2186261280217102e-03  9.5129212878060816e-03  9.7765355282218008e-03  9.9821920122887819e-03  1.0108315334326216e-02  1.0155211866496061e-02  1.0108585616146077e-02  9.9784091921178292e-03  9.7676147989232374e-03  9.4876916465659704e-03  9.1472245630131697e-03  8.7554570217949212e-03  8.3167656677206429e-03  7.8405802961981734e-03  7.3268942144600951e-03  6.7759443174693970e-03  6.1882824103783700e-03  5.5603705137225803e-03  4.8964933413358511e-03  4.1928043312665208e-03  3.4479431311588015e-03  2.6487846086418998e-03  1.8238999146938317e-03  9.5514458621801261e-04  0.0000000000000000e+00  0.0000000000000000e+00  0.0000000000000000e+00  0.0000000000000000e+00  0.0000000000000000e+00  0.0000000000000000e+00  0.0000000000000000e+00  0.0000000000000000e+00  0.0000000000000000e+00  1.0875442291390126e-03  2.0733599403995758e-03  3.0179232193264425e-03  3.9180145232322588e-03  4.7749286336609270e-03  5.5850049884737449e-03  6.3447015762309565e-03  7.0507312341903747e-03  7.6996127106830920e-03  8.2874652749391712e-03  8.8115481106457189e-03  9.2714517479441823e-03  9.6684402509507033e-03  1.0008772800967165e-02  1.0301675432257278e-02  1.0554937685399127e-02  1.0782689781490834e-02  1.0987639619733456e-02  1.1170565670763008e-02  1.1319592695735676e-02  1.1408969985812537e-02  1.1398214624548889e-02  1.1233185120290378e-02  1.0845018275580012e-02  1.0174140155446539e-02  9.1509839145067200e-03  7.7307070548060875e-03  5.8913312195688003e-03  3.6375477105584412e-03  1.0205506653274941e-03  -1.8803935714773394e-03  -4.9596480803998436e-03  -8.0890367766039539e-03  -1.1144803776370367e-02  -1.3976084932719464e-02  -1.6586471370260435e-02  -1.8836924756668011e-02  -2.0796323240765243e-02  -2.2474091345590197e-02  -2.3922277654717976e-02  -2.5284715954324688e-02  -2.6577377831130535e-02  -2.7931540353932107e-02  -2.9402250804263407e-02  -3.1051850508465813e-02  -3.2909996527514571e-02  -3.5020651663655596e-02  -3.7415212067742197e-02  -4.0070349824777682e-02  -4.3012329119550816e-02  -4.6248479674145276e-02  -4.9773894579083246e-02  -5.3586340012023795e-02  -5.7687078851528795e-02  -6.2077543438523307e-02  -6.6757422688522083e-02  -7.1703879272656978e-02  -7.6972692931791167e-02  -8.2529727447567355e-02  -8.8380956613619277e-02  -9.4558689170653382e-02  -1.0103967193757932e-01  -1.0787794139561102e-01  -1.1501321252469515e-01  -1.2248696490273416e-01  -1.3026543050116740e-01  -1.3834152481203157e-01  -1.4666863490684229e-01  -1.5523740886628062e-01  -1.6394358438056836e-01  -1.7277362833455651e-01  -1.8154921413862635e-01  -1.9002883509163787e-01  -1.9829112077352995e-01  -2.0582610829557979e-01  -2.1241571219841177e-01  -2.1792232887629309e-01  -2.2207307329353443e-01  -2.2492821314896685e-01  -2.2646629386601266e-01  -2.2650665236266146e-01  -2.2541834328299218e-01  -2.2325374136361867e-01  -2.2036123011759789e-01  -2.1672422733868790e-01  -2.1244438328237947e-01  -2.0774330947954361e-01  -2.0266472494501961e-01  -1.9725994936857613e-01  -1.9163006675389013e-01  -1.8579590747873517e-01  -1.7983984420294902e-01  -1.7377232945586121e-01  -1.6760593231648627e-01  -1.6139080891809304e-01  -1.5513138418034583e-01  -1.4883396349166766e-01  -1.4251334517744155e-01  -1.3618345620398029e-01  -1.2984854571112617e-01  -1.2351156169045113e-01  -1.1717888167956035e-01  -1.1085177850207298e-01  -1.0453666396671664e-01  -9.8232617572575703e-02  -9.1942566833525280e-02  -8.5667946964782679e-02  -7.9409256765191477e-02  -7.3167957695627756e-02  -6.6944388231671509e-02  -6.0738931419267207e-02  -5.4552127699525263e-02  -4.8384270038805618e-02  -4.2235558855818214e-02  -3.6106133690544592e-02  -2.9996254575980687e-02  -2.3905826921970966e-02  -1.7834981124230997e-02  -1.1783781244081751e-02  -5.7521946056963251e-03  2.5972030622054698e-04  6.2518865326698153e-03  6.2509487673369554e-03  6.2486769910412290e-03  6.2451239882088004e-03  6.2408151762725680e-03  6.2365019574237204e-03  6.2329415405520542e-03  6.2306545354228453e-03  6.2297199143506949e-03  -1.2256138600899985e-01  -1.5161930459062184e-01  -4.6858731400293818e-01  -3.7581529985967083e-01  -3.4090822576847152e-01  -3.1476795041416533e-01  -2.9341233193330896e-01  -2.7451299653186945e-01  -2.5718859505303199e-01  -2.4453691468513708e-01  -2.3157781332693708e-01  -2.1958880630480293e-01  -2.0743305406126680e-01  -1.9512332690492862e-01  -1.8253615684381955e-01  -1.1288490671783458e-01  -1.0191917695517928e-01  -9.0948513217669641e-02  -8.0057469469472259e-02  -7.0036682743619086e-02  -6.0475915551753558e-02  -4.1365208718689794e-01  -1.6744616800740580e-01  -5.1240962370706529e-02  -4.1299330068532994e-02  -2.8544695324337621e-02  -1.3650003519404094e-01  -1.3657122403605735e-02  -1.6957129653851424e-01  -7.7852768573277666e-04  -1.5579277527615193e-01  8.9682124632597844e-03  -1.3411259860134009e-01  -1.0422536362713890e-01  1.2508711513409662e-02  -7.9604454899312671e-02  -1.4168827188587532e-01  -5.5359942635177753e-02  1.1380129071041609e-02  -1.2663415104922152e-01  -1.2809884215788009e-01  9.0641470785332544e-03  -3.8442923160722467e-02  -1.9408300749010599e-01  -1.1111102140244281e-01  8.3646889583556070e-03  -2.7044663567654403e-02  -9.3535369650920103e-02  -2.3193754132624839e-02  9.3329518385936779e-03  -1.7633683021742660e-02  -7.6202029001077531e-02  -2.1446766185243324e-01  1.0101134409853427e-02  -9.6365230448028100e-03  -2.2525964354526470e-01  -3.2590755194652522e-04  9.6065829973042711e-03  -2.2418560239598015e-01  -5.5976067490672424e-02  -4.1949444052771026e-02  -3.1741821728543805e-02  8.5066600822089090e-03  6.9590887239011703e-03  6.7956993533104353e-03  -2.1466313023096326e-01  1.1004148759740692e-02  -4.0632845548401125e-01  -1.9479888173830373e-01  1.1278582171102933e-02  -2.4491391578898403e-02  -1.7682760074043574e-01  5.2004599700584226e-03  1.0581234291048847e-02  -1.5813761404243076e-01  -1.3284857717426532e-01  9.7661942893601372e-03  -1.0138295131730332e-01  8.4917876202337209e-03  -8.2482090206937878e-02  -6.3735504518999134e-02  6.6520842082697287e-03  -3.2157081474322030e-02  8.5929153491391967e-04  6.6220493977140989e-04  -1.3174618875312955e-01  4.3764612167887223e-03  2.9702371257102293e-03  -1.4358398154145705e-02  -1.4250470248787653e-01  -1.3050591659326644e-01  -1.5048731675320912e-01  -2.0508713786489377e-01  -1.4615415935763718e-01  -1.2067192611674749e-01  -1.4035350068592989e-02  -4.8059800837200413e-02  -6.8768855120274128e-02  -9.1156614631872121e-02  -1.1842810249575707e-01  -6.5924120547027482e-02  9.5978144279285013e-03  -8.5131408183963087e-02  -5.1505424262146632e-02  1.0987228461190487e-02  1.0024032227262288e-02  -1.0289268565784386e-01  9.8622189514485769e-03  8.7347712535262058e-03  -1.1852220266105615e-01  8.4429228692382303e-03  1.0146408794051603e-02  1.2335005862536502e-02  1.1593267565485829e-02  -5.5970842119176412e-02  -1.3426866026302242e-01  4.7910538984726140e-03  -7.0007537686665447e-03  -1.4889503420188110e-01  -2.1125492415613185e-02  -3.5006031292413059e-02  -4.6182937548169531e-02  7.0908987846885960e-04  -1.6319099549303775e-01  -1.7562180253798521e-01  9.9639424661899763e-04  -1.8853949330300265e-01  -2.0130071137562475e-01  -2.1351296857717422e-01  -2.2579707645525826e-01  -2.3805008396160085e-01  -2.5047974591938049e-01  -1.1784597816678480e-01  -2.6726817747205062e-01  -2.8535292272392687e-01  -3.0573448277527665e-01  -1.0750481532214695e-01  -3.2987989305906606e-01  -8.5578486753091251e-02  -9.6163765646707561e-02  -7.5387727063054369e-02  -6.5255854721154555e-02  -3.6034590462473737e-01  -6.3062617776100893e-01  9.2901792600231083e-04  5.1017346418607537e-04  2.4867802477624569e-03  -1.3122955560629568e-01  1.2453027281733922e-03  7.2763799551659272e-04  -2.8439564560569760e-03  -1.3106402833029257e-01  -1.3071828373575545e-01  -1.3011399980621682e-01  -1.3066890442434259e-01  -1.3003000090424668e-01  -1.3079404545045334e-01  -1.2994567794993592e-01  -1.3085969796532074e-01  -1.2983794854602146e-01  -1.3067061626984738e-01  -1.2954711222751461e-01  -1.3009652923951601e-01  -1.2883213438613617e-01  -1.2924343606927943e-01  -1.2790051293315755e-01  -1.2867670842126205e-01  -1.2723055107254722e-01  -1.2900467892760090e-01  -1.2753756124364252e-01  -1.3106731674310212e-01  -1.2892715338986094e-01  -1.3331789732266161e-01  -1.2534399796268211e-01  -1.2673599059624388e-01  -1.3704679176578025e-01  -1.4046843207193907e-01  -1.2351537863653275e-01  -1.2448131391822996e-01  -1.2121200851498881e-01  -1.2215662404199605e-01  -1.1877741438759519e-01  -1.1981934287330497e-01  -1.1622624675946647e-01  -1.1694844472164037e-01  -1.1345947880342250e-01  -1.1431765444197702e-01  -1.1063018820666909e-01  -1.1098248304170859e-01  -1.0762630990236698e-01  -1.0780589885907395e-01  -1.0450680375602606e-01  -1.0453298121180307e-01  -1.0132075137131424e-01  -1.0117711407953864e-01  -9.8061962556772145e-02  -9.7717229215246754e-02  -9.4732303479093755e-02  -9.4235303046954488e-02  -9.1377244788228174e-02  -9.0699449352753550e-02  -8.8065475269276633e-02  -8.7143969597641896e-02  -8.4452540880022034e-02  -1.4551799081441555e-01  -1.5122969534850070e-01  -8.3656473912379695e-02  -8.1102421193685700e-02  -8.0067180593837342e-02  -7.7896391914230090e-02  -7.6619923471191884e-02  -7.4578877879295402e-02  -7.3170085016317693e-02  -7.1326719832573826e-02  -1.2884040084036233e-01  -6.9831199311384845e-02  -6.8114024368783777e-02  -6.6231376368947589e-02  -6.4910328262699504e-02  -6.3111623223762445e-02  -6.1811092259015821e-02  -1.5612159810094908e-01  -1.6508628460603422e-01  -1.3048072303525413e-01  -5.9855800390666056e-02  -5.8723185838762820e-02  -5.6644802739240836e-02  -5.5653712385643810e-02  -5.3485034497784863e-02  -5.2616831308627425e-02  -1.4748318680995168e-01  -5.0343861967903705e-02  -4.9539761822049305e-02  -1.2195158446712201e-01  -4.7218990062880724e-02  -4.6451574529655419e-02  -4.4154753822391840e-02  -4.3325231836224477e-02  -4.1138717618933576e-02  -4.0183024513185658e-02  -1.2733819007281891e-01  -1.1188680310079842e-01  -3.8159568930618969e-02  -3.7019777599381118e-02  -1.6818432291947039e-01  -1.7843104171111868e-01  -1.5997099417746075e-01  -1.0095900077764258e-01  -3.5274969438529404e-02  -3.3814163144559740e-02  -3.2495712651355153e-02  -3.0662681594019206e-02  -2.9881119027901037e-02  -2.7702122932394657e-02  -6.0329219133482430e-02  -3.5319196905736004e-02  -5.1491987432901079e-02  -6.9422861738804867e-02  -2.7469714535280805e-02  -2.4901487933201447e-02  -2.5017121625390156e-02  -2.1783901551035458e-02  -2.2280548957849044e-02  -1.8727107064838759e-02  -1.9848597649113085e-02  -1.5803935971312886e-02  -1.7667493056547409e-02  -1.3169189620799694e-02  -1.5733344687604772e-02  -1.0827711202712788e-02  -1.3984080227565251e-02  -8.7904554402130769e-03  -1.2547914055761380e-02  -7.0393653697078977e-03  -1.1090556677413120e-02  -5.2978940781793528e-03  -9.7648653461004722e-03  -3.9421866832402607e-03  -8.4146745433553872e-03  -2.7371244330169028e-03  -7.2767937462872769e-03  -1.6312324030626235e-03  -7.8832386974063626e-02  -9.0054150010468181e-02  -5.8664974226350494e-03  -5.9334748377577544e-04  -4.2600474514329746e-03  4.8431080675012439e-04  -1.1653943860711903e-01  -9.5436653454727446e-02  -2.5912346368596123e-03  1.5471847324844291e-03  -1.0500191142381736e-01  -7.9040245037153178e-02  -1.7954634966852129e-01  -1.9107378384748436e-01  -1.9307245153264380e-01  -2.0549748824572514e-01  -2.1242971647379044e-01  -2.2151858724821641e-01  -2.3499516148893027e-01  -2.3898748528168764e-01  -2.5517557398205287e-01  -2.5501200929926526e-01  -2.7435247970717130e-01  -2.6883001425972630e-01  -2.8818750035739377e-01  -2.7898180283839014e-01  -2.9686494484810633e-01  -2.8567504954002160e-01  -3.0081352018098151e-01  -2.8886144476018610e-01  -3.0129738069477013e-01  -2.8933562358372689e-01  -2.9928937691544266e-01  -2.8789482802986771e-01  -2.9583297254156604e-01  -2.8524054261986354e-01  -2.9148969034087702e-01  -2.8183991910565692e-01  -2.8610612265750340e-01  -2.7720284837384329e-01  -2.7224833088364192e-01  -2.6896704196827220e-01  -2.7305679618489764e-01  -2.6541331177255989e-01  -2.6918280687609270e-01  -2.6177111104537909e-01  -2.6443562247971159e-01  -2.5775180074264487e-01  -2.6691686640334766e-01  -2.6295450894415984e-01  -2.7789454450558904e-01  -2.5985888497752602e-01  -2.5360090761568704e-01  -2.5083923023935173e-01  -2.4730973620463692e-01  -2.4938351442004195e-01  -2.4371122638904918e-01  -2.4507966434181674e-01  -2.3987859401178568e-01  -2.4076997846619888e-01  -2.3582040995273598e-01  -2.4083946559298877e-01  -2.2111507753281048e-01  -2.9879807483018839e-01  -2.3652438849983892e-01  -2.3176100218962548e-01  -2.3083114941162497e-01  -2.2698326246408404e-01  -2.2768849639014860e-01  -2.2320974370703658e-01  -2.2352777580581396e-01  -2.1932372507126810e-01  -3.1570049297186370e-01  -2.2219675166565037e-01  -2.1938767543491269e-01  -2.1544919747454494e-01  -3.1163228938289883e-01  -2.1537309363669924e-01  -2.1146107600263889e-01  -2.1171256734923222e-01  -2.0752523798486441e-01  -2.0737530785924896e-01  -2.0346623544705106e-01  -2.0347025649507605e-01  -1.9954747740207077e-01  -1.9940912082465323e-01  -1.9559156226071817e-01  -1.9531464648865857e-01  -1.9150895029631493e-01  -1.9177143204595060e-01  -1.8777919512765659e-01  -1.8737041769898585e-01  -1.8373924513692885e-01  -1.8326427196526587e-01  -1.7967734816116954e-01  -2.1295162446715224e-01  -2.7661600238688466e-01  -3.0086605244199877e-01  -1.7921549474881643e-01  -1.7562481520265313e-01  -1.7607464564807707e-01  -1.7191917749335672e-01  -1.7140150534593321e-01  -1.6774921797198705e-01  -1.7236420503291244e-01  -9.9723379532755700e-04  2.5830971558695745e-03  6.9023212604474554e-04  3.6557074125563617e-03  2.4081084407209410e-03  4.7193957184178325e-03  -2.5061300473009152e-01  -6.0937679073247597e-02  -1.3162990407452771e-01  -1.6713419647826469e-01  -1.6358726113813948e-01  -2.6599316873251599e-01  -5.4758188197510990e-03  2.5195655576420411e-03  -2.1968472683974182e-02  4.0590961638720981e-03  5.7327211355346491e-03  6.4404118699722280e-03  6.8726180137885454e-03  6.6838121129807792e-03  7.3384606117047188e-03  7.5478028242059458e-03  7.8149299825639642e-03  8.3051045107091128e-03  8.2852051131229194e-03  8.9411269027447164e-03  8.7436451289382277e-03  9.4600697773411548e-03  9.1774773926402119e-03  9.8680298856972364e-03  9.5503622084213858e-03  1.0159435983622409e-02  9.8598202962061430e-03  1.0339577660949690e-02  1.0091381516158919e-02  1.0436682129483432e-02  1.0243027171764811e-02  1.0472674235809354e-02  1.0327742988733228e-02  1.0441144672317857e-02  1.0322569430114241e-02  1.0370069068310209e-02  1.0266854311025943e-02  1.0242289979907943e-02  1.0132930245413545e-02  1.0094874717263369e-02  9.9548076888140956e-03  5.2744976445992806e-03  -1.8811111184343590e-01  -2.2802062351025398e-01  -1.6279952041016538e-01  -1.5929857107968926e-01  -1.6006176577335296e-01  -1.5565199413289604e-01  -1.5645528409866080e-01  -1.5196899112317544e-01  -1.5124484693378593e-01  -1.4756310263813222e-01  -1.4668389360