<?xml version="1.0"?>
<VTKFile type="UnstructuredGrid"  version="0.1"  >
<UnstructuredGrid>
<Piece  NumberOfPoints="2886" NumberOfCells="5412">
<Points>
<DataArray  type="Float64"  NumberOfComponents="3"  format="ascii">0 0.1 0  0.98 0.1 0  1 0.1 0  1 0 0  1.5 0 0  3 0 0  3 0.3 0  0 0.3 0  0.01975375321854102 0.1 0  0.03918897458218897 0.1 0  0.05831079002627837 0.1 0  0.07712425666319796 0.1 0  0.0956343475259058 0.1 0  0.1138459546796227 0.1 0  0.1317638870668193 0.1 0  0.1493928840275937 0.1 0  0.1667376092280033 0.1 0  0.1838026357802664 0.1 0  0.2005924801287244 0.1 0  0.2171115811543574 0.1 0  0.2333643037107681 0.1 0  0.2493549444060462 0.1 0  0.2650877293306821 0.1 0  0.2805668058011438 0.1 0  0.2957962848620976 0.1 0  0.3107801766802674 0.1 0  0.3255224447361181 0.1 0  0.3400269848175519 0.1 0  0.3542976327080778 0.1 0  0.3683381609158136 0.1 0  0.3821522744564845 0.1 0  0.3957436316838916 0.1 0  0.4091158196437086 0.1 0  0.4222723742184605 0.1 0  0.4352167733293057 0.1 0  0.4479524348643424 0.1 0  0.4604827295467524 0.1 0  0.4728109659990664 0.1 0  0.4849404035409129 0.1 0  0.4968742471455402 0.1 0  0.508615651843175 0.1 0  0.520167721130924 0.1 0  0.5315335063628542 0.1 0  0.5427160117228604 0.1 0  0.5537181940261912 0.1 0  0.564542961924507 0.1 0  0.575193173270606 0.1 0  0.5856716438765114 0.1 0  0.5959811458006617 0.1 0  0.6061243988680743 0.1 0  0.6161040893285659 0.1 0  0.6259228503970299 0.1 0  0.6355832809287655 0.1 0  0.6450879281079505 0.1 0  0.6544393102991295 0.1 0  0.663639896558931 0.1 0  0.6726921201956305 0.1 0  0.6815983691630338 0.1 0  0.6903610031396646 0.1 0  0.6989823343332418 0.1 0  0.7074646404270378 0.1 0  0.7158101645005117 0.1 0  0.7240211149852543 0.1 0  0.7320996585612525 0.1 0  0.7400479319727645 0.1 0  0.7478680336617921 0.1 0  0.755562036504958 0.1 0  0.7631319665092091 0.1 0  0.7705798279317605 0.1 0  0.777907588066146 0.1 0  0.7851171851013118 0.1 0  0.7922105226004981 0.1 0  0.7991894774550319 0.1 0  0.8060558928136696 0.1 0  0.812811583201334 0.1 0  0.8194583352091183 0.1 0  0.8259979035038147 0.1 0  0.8324320194413813 0.1 0  0.8387623808293405 0.1 0  0.8449906627004957 0.1 0  0.8511185094880469 0.1 0  0.8571475426008311 0.1 0  0.8630793533568246 0.1 0  0.8689155114558531 0.1 0  0.8746575581239063 0.1 0  0.8803070109173519 0.1 0  0.885865363938836 0.1 0  0.8913340851680313 0.1 0  0.8967146206523592 0.1 0  0.9020083930695622 0.1 0  0.9072167995950768 0.1 0  0.9123412183131177 0.1 0  0.9173830029719022 0.1 0  0.9223434865647732 0.1 0  0.9272239785872722 0.1 0  0.9320257720706087 0.1 0  0.9367501330378739 0.1 0  0.9413983102716995 0.1 0  0.9459715351562933 0.1 0  0.9504710127113115 0.1 0  0.9548979346500661 0.1 0  0.9592534708344373 0.1 0  0.9635387708980176 0.1 0  0.9677549682252325 0.1 0  0.971903177251235 0.1 0  0.9759844952956497 0.1 0  0.9840000000000086 0.1 0  0.987999999999974 0.1 0  0.9919999999999393 0.1 0  0.9959999999999913 0.1 0  1 0.09591793123533533 0  1 0.09133596463859224 0  1 0.08619288104391448 0  1 0.08041996484521211 0  1 0.07394008421771697 0  1 0.06666666567302955 0  1 0.05850252932209174 0  1 0.04933859630113544 0  1 0.03905242821848202 0  1 0.02750659386753798 0  1 0.01454683679239736 0  1.015625 0 0  1.03125 0 0  1.046875 0 0  1.0625 0 0  1.078125 0 0  1.09375 0 0  1.109375 0 0  1.125 0 0  1.140625 0 0  1.15625 0 0  1.171875 0 0  1.1875 0 0  1.203125 0 0  1.21875 0 0  1.234375 0 0  1.25 0 0  1.265625 0 0  1.28125 0 0  1.296875 0 0  1.3125 0 0  1.328125 0 0  1.34375 0 0  1.359375 0 0  1.375 0 0  1.390625 0 0  1.40625 0 0  1.421875 0 0  1.4375 0 0  1.453125 0 0  1.46875 0 0  1.484375 0 0  1.515920751924515 0 0  1.531989369316721 0 0  1.54820720925872 0 0  1.564575665560501 0 0  1.581096138674279 0 0  1.597770029901263 0 0  1.614598783332311 0 0  1.631583831055205 0 0  1.64872661129721 0 0  1.666028606716533 0 0  1.683491276608443 0 0  1.701116134125304 0 0  1.718904673324128 0 0  1.736858414799339 0 0  1.754978895814663 0 0  1.773267661782904 0 0  1.791726281103402 0 0  1.810356325314689 0 0  1.8291593848892 0 0  1.848137076690385 0 0  1.867291007717254 0 0  1.886622833871288 0 0  1.90613418642363 0 0  1.925826753299799 0 0  1.945702199101513 0 0  1.96576223584749 0 0  1.986008569283268 0 0  2.006442931928877 0 0  2.02706707547783 0 0  2.047882750887917 0 0  2.06889175187935 0 0  2.090095860038271 0 0  2.111496891648636 0 0  2.133096679109554 0 0  2.154897066851056 0 0  2.176899916687499 0 0  2.199107102752146 0 0  2.22152053937028 0 0  2.244142122958061 0 0  2.266973806444078 0 0  2.290017523268154 0 0  2.313275249499252 0 0  2.336748971745516 0 0  2.360440702338606 0 0  2.384352453384031 0 0  2.408486280477412 0 0  2.432844240041185 0 0  2.457428414757088 0 0  2.482240901796653 0 0  2.507283830121838 0 0  2.532559332080812 0 0  2.558069568787417 0 0  2.583816724966441 0 0  2.60980299606584 0 0  2.636030600971886 0 0  2.662501790984011 0 0  2.689218818279327 0 0  2.716183964547616 0 0  2.743399548861297 0 0  2.77086788244719 0 0  2.798591312896326 0 0  2.826572223178268 0 0  2.854812990138617 0 0  2.883316031690714 0 0  2.912083780657189 0 0  2.941118704633482 0 0  2.970423276998917 0 0  3 0.02999999999994495 0  3 0.05999999999987042 0  3 0.089999999999783 0  3 0.119999999999701 0  3 0.149999999999619 0  3 0.179999999999692 0  3 0.2099999999997737 0  3 0.2399999999998511 0  3 0.2699999999999185 0  2.970138294777171 0.3 0  2.940375666438236 0.3 0  2.910711782853056 0.3 0  2.881146331305122 0.3 0  2.851678975030285 0.3 0  2.822309388626621 0.3 0  2.793037250095074 0.3 0  2.76386223529133 0.3 0  2.734784017903872 0.3 0  2.705802289276642 0.3 0  2.676916713794697 0.3 0  2.648126987654635 0.3 0  2.619432780406184 0.3 0  2.590833779385199 0.3 0  2.562329669847737 0.3 0  2.533920134950189 0.3 0  2.505604855727852 0.3 0  2.477383539822502 0.3 0  2.449255847639465 0.3 0  2.421221492569094 0.3 0  2.393280152486815 0.3 0  2.36543151914496 0.3 0  2.337675285481809 0.3 0  2.310011142385583 0.3 0  2.282438797441587 0.3 0  2.254957931061538 0.3 0  2.227568248063605 0.3 0  2.200269436651085 0.3 0  2.173061204949961 0.3 0  2.145943251515011 0.3 0  2.118915272469994 0.3 0  2.091976978084957 0.3 0  2.065128060700849 0.3 0  2.038368218849433 0.3 0  2.01169717777258 0.3 0  1.985114624111908 0.3 0  1.958620267850966 0.3 0  1.93221382054972 0.3 0  1.905894991850698 0.3 0  1.879663489459713 0.3 0  1.853519019126419 0.3 0  1.827461291053897 0.3 0  1.801490031354372 0.3 0  1.775604937580312 0.3 0  1.74980572560258 0.3 0  1.724092118631866 0.3 0  1.698463829173586 0.3 0  1.672920575782554 0.3 0  1.647462076974085 0.3 0  1.622088043536933 0.3 0  1.5967981978949 0.3 0  1.571592267767068 0.3 0  1.546469970305736 0.3 0  1.521431023814044 0.3 0  1.496475156230927 0.3 0  1.471602093687753 0.3 0  1.446811560490646 0.3 0  1.422103279101731 0.3 0  1.397476971708191 0.3 0  1.37293238939876 0.3 0  1.348469231419202 0.3 0  1.324087248732772 0.3 0  1.299786165921677 0.3 0  1.275565710847046 0.3 0  1.251425617644257 0.3 0  1.227365618676339 0.3 0  1.203385446174014 0.3 0  1.179484853067473 0.3 0  1.155663548773374 0.3 0  1.131921292279077 0.3 0  1.108257802159295 0.3 0  1.084672829009693 0.3 0  1.061166115303374 0.3 0  1.037737392995421 0.3 0  1.01438640299116 0.3 0  0.991112899770314 0.3 0  0.9679166155523955 0.3 0  0.944797284182564 0.3 0  0.921754678526042 0.3 0  0.8987885143602501 0.3 0  0.8758985548820624 0.3 0  0.8530845484099929 0.3 0  0.8303462351786988 0.3 0  0.8076833651172373 0.3 0  0.7850956864865304 0.3 0  0.7625829601354557 0.3 0  0.7401449314598274 0.3 0  0.717781337993959 0.3 0  0.6954919649675473 0.3 0  0.6732765357561226 0.3 0  0.6511348120768439 0.3 0  0.6290665642016573 0.3 0  0.6070715355430467 0.3 0  0.5851494825775325 0.3 0  0.5633001690203812 0.3 0  0.5415233562273221 0.3 0  0.5198187909431873 0.3 0  0.4981862401387795 0.3 0  0.4766254686134248 0.3 0  0.4551362360485234 0.3 0  0.4337182975262159 0.3 0  0.4123714223228037 0.3 0  0.3910953802377493 0.3 0  0.3698899313205595 0.3 0  0.3487548463710963 0.3 0  0.3276898864081783 0.3 0  0.3066948129116018 0.3 0  0.2857694003037476 0.3 0  0.2649134227095047 0.3 0  0.2441266417321288 0.3 0  0.2234088223399122 0.3 0  0.2027597568977288 0.3 0  0.1821792020676698 0.3 0  0.1616669305402443 0.3 0  0.1412227158799362 0.3 0  0.12084633013886 0.3 0  0.1005375673448281 0.3 0  0.08029618164595353 0.3 0  0.06012194778526769 0.3 0  0.04001466495039718 0.3 0  0.01997408913631205 0.3 0  0 0.2800000000000553 0  0 0.2600000000001105 0  0 0.2400000000001658 0  0 0.2200000000002211 0  0 0.2000000000002764 0  0 0.1800000000002244 0  0 0.1600000000001691 0  0 0.140000000000115 0  0 0.1200000000000564 0  1.13346801534201 0.01255848438672509 0  1.003577645172735 0.09351054173913405 0  0.9777559943702486 0.1034978156913738 0  0.9524533750752109 0.1040889939962738 0  0.9296242411226409 0.1041520033606139 0  0.9046110503652111 0.104409422380137 0  0.8777709649694228 0.1053360318797398 0  0.8483859145648608 0.1061007868330701 0  0.8162363822948977 0.1052777104363292 0  0.7893110024210437 0.1060761643971561 0  0.7587949382612539 0.1067265405088633 0  0.7280603867732535 0.1069398153264939 0  0.6947001989413015 0.1075609887579097 0  0.6590363283767549 0.1076715322596598 0  0.6210028614493155 0.1072970410408442 0  1.1953125 0.01353164693413185 0  1.258193991486058 0.01269648635163345 0  1.3201967268638 0.01407907077719561 0  1.383538555392096 0.01434101079053473 0  1.445312500000001 0.01303671693628424 0  1.508925448095738 0.01398525724792267 0  0.9939176689634008 0.1034638089837981 0  1.120967497222226 0.2796788492172345 0  1.572835902117391 0.01424132418857359 0  1.637573277451887 0.01212536916586023 0  1.709730776795181 0.01466855431023635 0  1.005631976950563 0.07074019818158772 0  1.784944696816299 0.01454708406461822 0  0.5805605730631225 0.1101465090472147 0  1.855621181165637 0.01550931272897607 0  0.5366111276616774 0.1096761308243709 0  1.935200147913231 0.01760344159641829 0  1.214922267975168 0.2799787705802257 0  1.31178773425331 0.2792
[...]
<PointData  Scalars="pressure"> 
<DataArray  type="Float64"  Name="pressure"  format="ascii">7.8769388200149500e-03  -1.1097083949758189e+00  3.4521650477612655e-03  5.1828213270109745e-03  1.1619619774973975e-02  0.0000000000000000e+00  0.0000000000000000e+00  7.9583218794263659e-03  1.9508553440555632e-03  -3.8804636582692570e-03  -9.6188836438712705e-03  -1.5266007574826870e-02  -2.0823570680072338e-02  -2.6293171592166004e-02  -3.1676162183142086e-02  -3.6974513772230905e-02  -4.2189585847796328e-02  -4.7322937302549696e-02  -5.2376489380901885e-02  -5.7351775005985331e-02  -6.2250160017006541e-02  -6.7073765433891167e-02  -7.1824199484056814e-02  -7.6502374319322150e-02  -8.1111354054379817e-02  -8.5652228464261751e-02  -9.0126783889609985e-02  -9.4537670476593408e-02  -9.8886192882496754e-02  -1.0317346121231909e-01  -1.0740328029310132e-01  -1.1157655875034247e-01  -1.1569676914223415e-01  -1.1976540885640989e-01  -1.2378354001612515e-01  -1.2775497693155696e-01  -1.3168266016903632e-01  -1.3556823383979241e-01  -1.3941444661018149e-01  -1.4322493481030771e-01  -1.4700122827234285e-01  -1.5074777406802439e-01  -1.5446678280151202e-01  -1.5816242493726221e-01  -1.6183783970413873e-01  -1.6549177824772518e-01  -1.6913646034503202e-01  -1.7277027700705327e-01  -1.7639750091622197e-01  -1.8002483017472670e-01  -1.8365578689543646e-01  -1.8728740096396052e-01  -1.9093617333623070e-01  -1.9459993825036587e-01  -1.9828449782112850e-01  -2.0199600183106431e-01  -2.0573920082986297e-01  -2.0951975740922277e-01  -2.1334521283680732e-01  -2.1722052592425295e-01  -2.2115114575591285e-01  -2.2514283534068097e-01  -2.2920969896531843e-01  -2.3335087373530178e-01  -2.3757762550876757e-01  -2.4189264046166956e-01  -2.4631863647872770e-01  -2.5085786395490095e-01  -2.5550795429657858e-01  -2.6028987963848238e-01  -2.6522315150778419e-01  -2.7030056382595202e-01  -2.7555093302018491e-01  -2.8098436214943334e-01  -2.8660277623987107e-01  -2.9243225329916328e-01  -2.9848857734636547e-01  -3.0478854408376072e-01  -3.1136659302463848e-01  -3.1823102810112758e-01  -3.2539447130852073e-01  -3.3287420910806770e-01  -3.4075495759162816e-01  -3.4902893402875440e-01  -3.5772707942429272e-01  -3.6691048934872206e-01  -3.7661180074739409e-01  -3.8688831329254109e-01  -3.9779624996571211e-01  -4.0944321819473817e-01  -4.2189307155386568e-01  -4.3521898374129275e-01  -4.4958966634234249e-01  -4.6514651362040460e-01  -4.8206914734599310e-01  -5.0059972496504856e-01  -5.2103526807427092e-01  -5.4376482466695986e-01  -5.6932651966508485e-01  -5.9846744062389645e-01  -6.3224767487293854e-01  -6.7214711022534779e-01  -7.2108961368090574e-01  -7.8338458224921292e-01  -8.6643197051931653e-01  -1.0095806362980653e+00  -2.3016608406006713e+00  -2.0060248609620879e+00  -1.3729184094561029e+00  -7.8098408554236398e-01  -1.6121388300672834e-01  -6.3376173240057301e-02  -4.5232902641229887e-02  -2.7893150947571409e-02  -1.7087972047958432e-02  -9.5811103867383153e-03  -4.1141371858222893e-03  2.7321419255804604e-04  3.6902272498379636e-03  5.8244563733653321e-03  5.9913637663143709e-03  4.1914227169173434e-03  4.4503150551972797e-03  6.7381846594686060e-03  1.1040177635773252e-02  1.7363922688315318e-02  2.5515370149482273e-02  3.5160445632469783e-02  4.5796714542487363e-02  5.6593279559657934e-02  6.6794384278622027e-02  7.5769649167255843e-02  8.3008845712501542e-02  8.8261554658528002e-02  9.1413499607549298e-02  9.2469327103387053e-02  9.1625471321816657e-02  8.9132806430358147e-02  8.5268396400321800e-02  8.0381530532626116e-02  7.4726300849045399e-02  6.8503890197190109e-02  6.2132821744460706e-02  5.5605478411316661e-02  4.9235986431230783e-02  4.3106878589959478e-02  3.7307505446212523e-02  3.1890602525414612e-02  2.6913055966110183e-02  2.2387189761584846e-02  1.8339764672075178e-02  1.4754857657350694e-02  8.8684342315491181e-03  6.5193195457068790e-03  4.5684370011440613e-03  2.9679462545998667e-03  1.7068762167078682e-03  8.0490815688992153e-04  1.2785838303078497e-04  -2.6735000203723179e-04  -4.0083306113420226e-04  -3.1941600696692714e-04  -6.5866216954158356e-05  3.5936927817413207e-04  9.3835461156722999e-04  1.6397634296598505e-03  2.4496314993918853e-03  3.3528500389403298e-03  4.3240428172002096e-03  5.3573979970482823e-03  6.4382350029720901e-03  7.5473953715178331e-03  8.6807680903812790e-03  9.8218489961382910e-03  1.0958811375597625e-02  1.2091439302376593e-02  1.3199771429549648e-02  1.4289763837987659e-02  1.5339097551322824e-02  1.6351800264371497e-02  1.7317706567736502e-02  1.8234474465000129e-02  1.9098317063565337e-02  1.9902051029799792e-02  2.0642701346797642e-02  2.1316846998437836e-02  2.1921883030521061e-02  2.2454713078044940e-02  2.2912968595093501e-02  2.3294934497692963e-02  2.3598444595902518e-02  2.3823007636381382e-02  2.3967772879245449e-02  2.4031663148018155e-02  2.4014377848303351e-02  2.3915989475463102e-02  2.3735297171265955e-02  2.3472845391988895e-02  2.3131551589968814e-02  2.2709364319632882e-02  2.2203721074908610e-02  2.1630139359668267e-02  2.0971050043668546e-02  2.0247034976344461e-02  1.9440164364711163e-02  1.8571356280875480e-02  1.7631428229817378e-02  1.6614960557809234e-02  1.5546093027360834e-02  1.4402148327721869e-02  1.3204948700303082e-02  1.1947423162066102e-02  1.0631390251287840e-02  9.2572093953586058e-03  7.8325018016788660e-03  6.3606280782383725e-03  4.8345198291158088e-03  3.2767997672757702e-03  1.6651697376472768e-03  0.0000000000000000e+00  0.0000000000000000e+00  0.0000000000000000e+00  0.0000000000000000e+00  0.0000000000000000e+00  0.0000000000000000e+00  0.0000000000000000e+00  0.0000000000000000e+00  0.0000000000000000e+00  1.9378035322459226e-03  3.7303274073847898e-03  5.4903835611611702e-03  7.2020747123641305e-03  8.8683583664178091e-03  1.0490210231224987e-02  1.2068251016722466e-02  1.3602457279624433e-02  1.5092367031154349e-02  1.6537943683281951e-02  1.7937748260891975e-02  1.9291685146269423e-02  2.0597477083922473e-02  2.1854447064320055e-02  2.3060399889479815e-02  2.4212676903136450e-02  2.5310972483026911e-02  2.6348996529269572e-02  2.7323890961279313e-02  2.8231034376763161e-02  2.9065836289141833e-02  2.9821000994084006e-02  3.0492770991433837e-02  3.1072041574498825e-02  3.1547218568949431e-02  3.1914502242708184e-02  3.2161060113448901e-02  3.2273715688509542e-02  3.2242701906079772e-02  3.2057393322915205e-02  3.1702895039265030e-02  3.1164395419198025e-02  3.0447561426536408e-02  2.9528866007319066e-02  2.8377945264700416e-02  2.7026760855692066e-02  2.5436560791079321e-02  2.3618818254108834e-02  2.1561044560819857e-02  1.9276866185212210e-02  1.6758739883782823e-02  1.4015387720400041e-02  1.1064955195336490e-02  7.9150157472645030e-03  4.5830446214618539e-03  1.0888470875655095e-03  -2.5496751405630494e-03  -6.3096206505854867e-03  -1.0166135650023129e-02  -1.4092349626917524e-02  -1.8068269317143490e-02  -2.2071468141718016e-02  -2.6080443466769788e-02  -3.0079127192116854e-02  -3.4052267169726008e-02  -3.7987940278592348e-02  -4.1880961348357323e-02  -4.5731644080940353e-02  -4.9540058600698059e-02  -5.3315206142745535e-02  -5.7073954248883119e-02  -6.0836511941467060e-02  -6.4631220554412866e-02  -6.8493981107113563e-02  -7.2470507998692313e-02  -7.6614494908657321e-02  -8.0987689463972445e-02  -8.5673814112052216e-02  -9.0750171490619327e-02  -9.6322223529288348e-02  -1.0249892226649630e-01  -1.0937990470256823e-01  -1.1705035038017163e-01  -1.2553475373317508e-01  -1.3469819854676215e-01  -1.4439522894753107e-01  -1.5419603757198372e-01  -1.6368562100703946e-01  -1.7240542748275728e-01  -1.8012124360040374e-01  -1.8623220603418089e-01  -1.9081545197295208e-01  -1.9374451123207651e-01  -1.9543629796437684e-01  -1.9575651683237658e-01  -1.9480924269873370e-01  -1.9294442708942960e-01  -1.9025438993859609e-01  -1.8679770862582307e-01  -1.8278503094139920e-01  -1.7825575700665230e-01  -1.7339064149073358e-01  -1.6821673916966148e-01  -1.6275775410721768e-01  -1.5713534147114316e-01  -1.5136314663575184e-01  -1.4545380014117587e-01  -1.3944579845327093e-01  -1.3337373144134765e-01  -1.2725116354273142e-01  -1.2108441178553545e-01  -1.1489121372091683e-01  -1.0867433110070672e-01  -1.0245254546776220e-01  -9.6222541895759878e-02  -8.9993201729082151e-02  -8.3768306451158819e-02  -7.7549621297181792e-02  -7.1341312535266183e-02  -6.5144678269678499e-02  -5.8960833171941618e-02  -5.2791503433036534e-02  -4.6637735112767566e-02  -4.0500225228944017e-02  -3.4379543255248085e-02  -2.8276632518311539e-02  -2.2191329289674103e-02  -1.6124157595914613e-02  -1.0075485235587871e-02  -4.0453188001326867e-03  1.9659838967630823e-03  7.9580073746601566e-03  7.9546244195136256e-03  7.9463631975455369e-03  7.9333956028962739e-03  7.9176444756304809e-03  7.9018770613894593e-03  7.8888822758060358e-03  7.8805659074540121e-03  7.8771950401366544e-03  5.0522486603528351e-02  -6.1304589952569460e-02  -1.1327465119923432e+00  -6.1953542687173202e-01  -4.9393939978938184e-01  -4.1717318399784065e-01  -3.6389935140343610e-01  -3.2299265083877426e-01  -2.9008664024853265e-01  -2.6861104139230302e-01  -2.4854246436701513e-01  -2.3149151072031918e-01  -2.1545730413854217e-01  -2.0025030661097831e-01  -1.8553862647969563e-01  8.4047674731551336e-02  8.9028179336496732e-02  7.0777286139276654e-02  4.5566737448590168e-02  2.4668768544799338e-02  1.0318652724342587e-02  -6.6885907712742587e-01  -9.8479828921347323e-02  2.7047723006335977e-03  2.7517274806758226e-06  9.6415099668106959e-04  -1.3015622113251413e-02  4.2390660888465088e-03  -1.7106023925978373e-01  8.2169134634266939e-03  -1.5618300617950429e-01  1.2802813248358809e-02  -7.8647452952572042e-02  -6.2684840244396828e-02  1.7109747296333768e-02  -4.7715327425680340e-02  -1.4134091474930546e-01  -2.8209063528600573e-02  2.0320243516241430e-02  -1.2578578920224559e-01  2.1545038725982155e-02  2.2739626296567349e-02  -8.4540820965924579e-03  -1.2058039664033796e-01  -1.0994024593417914e-01  2.3926424723472103e-02  1.2269717169067568e-02  -9.2147908911016749e-02  2.0040157821088610e-02  2.3824642555872730e-02  2.6074783641957172e-02  -7.4692209919588470e-02  -1.4749486257755337e-01  2.2486625845498716e-02  2.9811494333085636e-02  -1.7500546027181402e-01  3.1723206580818945e-02  1.9845949632725356e-02  -1.9155894304646376e-01  -5.4388272665122667e-02  -4.0331706168450998e-02  2.5891311303958432e-03  1.7112776537574079e-02  1.3656634810074123e-02  3.2048723054163897e-02  -1.9496937900124053e-01  3.0593410018762125e-02  -7.5668118915146632e-01  -1.8490344981836063e-01  2.8515779798481633e-02  -2.2853296006103172e-02  -1.7075700022513371e-01  9.9340697926435344e-03  2.4681043033919919e-02  -1.5410336195297167e-01  -1.3013774526836092e-01  2.1146098662899900e-02  -9.9330378383107876e-02  1.7168993089629245e-02  -8.0600465822953285e-02  -6.1945337956294012e-02  1.2781562842007299e-02  -3.0434412643130584e-02  1.5913802899442150e-03  2.3443298567065842e-03  1.4302837789606181e-03  8.1220262012667976e-03  5.4981053547843405e-03  -1.2648766542521258e-02  -3.1725977039960454e-02  9.2392796353438778e-03  -8.7786326656943733e-02  -1.9134611038539839e-01  -1.4288716344625990e-01  -1.1829558825166711e-01  -1.2391226409837825e-02  -2.0583213886529304e-02  -3.9855024783321299e-02  -5.5127096485255135e-02  -7.0333007702662056e-02  -6.4368082976452232e-02  3.1567437746670680e-02  -8.3676240007964808e-02  -4.9750658288189337e-02  2.6728601930012846e-02  2.1315619596636533e-02  -1.0160569575459606e-01  2.3266258135125163e-02  2.4042268181560522e-02  -1.1748662100873795e-01  2.3489067178390340e-02  2.1673006000542918e-02  1.8638180985980562e-02  1.5092165070003485e-02  5.8436021151390231e-03  -1.3364550129400710e-01  1.0499537769545897e-02  6.1752948121666729e-03  -1.4888708881749149e-01  2.4130030658949387e-03  1.3864332933017436e-04  8.1469567407859908e-04  1.2954574657509125e-03  -1.6411331872663790e-01  -1.7774576262082184e-01  2.6564471464768846e-03  -1.9247385147215779e-01  -2.0776734078849535e-01  -2.2333680067659342e-01  -2.4016624911484952e-01  -2.5834231914942263e-01  -2.7846206730781936e-01  7.0334352372580664e-02  -3.0871122255629985e-01  -3.4573208203906858e-01  -3.9367407767646168e-01  9.0398018737063351e-02  -4.5989195937513339e-01  5.8490606190797378e-02  8.1289902214050747e-02  3.5239234676902272e-02  1.6691679065805161e-02  -5.6030198632954897e-01  -1.6469583905838741e+00  1.6881708679631800e-03  2.2110058634595897e-03  4.5276422660071470e-03  5.2319039045066532e-03  2.8936262068014998e-03  1.3056991688992603e-03  -1.1373112657549844e-03  6.4625024834427652e-03  7.0707786886237576e-03  9.7518151568572395e-03  6.5675998775036049e-03  9.4761101392296064e-03  6.2253620606379581e-03  1.0139943906895170e-02  6.8667826772772613e-03  1.1342784360321136e-02  7.9583631995282997e-03  1.2230988961982233e-02  7.5477078731833215e-03  1.1674042577910571e-02  3.7891553334977938e-03  7.9072020178144898e-03  -3.7344994127046249e-03  3.7956201042723943e-04  -1.4953443842562157e-02  -1.0709763418859810e-02  -2.8554010096595278e-02  -2.3192364487494146e-02  -3.5635485351746765e-02  -3.1998338502705840e-03  -1.8776890639345137e-02  -4.8817522616061315e-02  -5.8271919857721580e-02  -5.3914770894368644e-04  -1.5317937767852098e-02  3.7706046455638588e-03  -1.3748166575730433e-02  6.7007738378193809e-03  -1.4102153588159314e-02  8.2434327205180395e-03  -1.2369808561410010e-02  8.9882833538491944e-03  -1.6065099356356690e-02  6.7606170739497847e-03  -1.5068188898794032e-02  5.2543659262846067e-03  -1.7161962524636212e-02  2.5857974076613729e-03  -1.9241772726690337e-02  -5.3992665224566170e-04  -2.1759249094196010e-02  -3.9223885894468825e-03  -2.3533191601291966e-02  -7.2515005250526334e-03  -2.5601680598242325e-02  -1.0437116025929219e-02  -2.6952496033833172e-02  -1.4250975903045424e-02  -2.8141439972582213e-02  -1.4667919357753018e-02  -6.9836217139279094e-02  -8.3554848012236019e-02  -2.9330083099953424e-02  -1.7980879608813970e-02  -2.9165546965015717e-02  -1.9010490622897631e-02  -2.9505510333365414e-02  -2.0028473168464594e-02  -2.9022445558145267e-02  -2.0452834892933817e-02  -3.3339414057664718e-02  -2.8097557619694395e-02  -2.0451779827502098e-02  -2.7827926102027414e-02  -2.0246342866519124e-02  -2.5419855322745238e-02  -1.9275417017429988e-02  -9.0055895344118259e-02  -1.0932476915114979e-01  9.6913556291361176e-04  -2.3784616142126038e-02  -1.8171126796534685e-02  -2.1765384669525933e-02  -1.6782491142174116e-02  -1.9630534169885538e-02  -1.5166953269461599e-02  -7.7532133507898546e-02  -1.7309557720593945e-02  -1.3327724258179501e-02  -3.3533945588241763e-02  -1.4868284589524770e-02  -1.1334643735240419e-02  -1.2332662520358584e-02  -9.1804983076196004e-03  -9.6915129665552900e-03  -6.9578587856751438e-03  1.6622369074673547e-02  -3.5385235616226064e-02  -7.0386298143778397e-03  -4.6275852751738586e-03  -1.0828441229271635e-01  -1.2761706107847709e-01  -9.3748613678151668e-02  -3.8228168329057725e-02  -4.3510364812534086e-03  -2.2104453727220114e-03  -1.6656159708915883e-03  2.1552894649301294e-04  1.0068251880024359e-03  2.5605976233371466e-03  -1.2929326160458925e-02  -2.2403169788615921e-03  -1.0672891111030659e-02  -1.1786056595654418e-02  3.6276367711551762e-03  4.8963359480070096e-03  3.8274072718434389e-03  5.8541154212165668e-03  7.1803808254085888e-03  7.8412958657904548e-03  9.3977742044169255e-03  9.8332609775580691e-03  1.1549437701650355e-02  1.1807837643746629e-02  1.3609338459240927e-02  1.3680577113765016e-02  1.5563140463909246e-02  1.5465175452130258e-02  1.7429565255062389e-02  1.7160357407083167e-02  1.9156294625518953e-02  1.8695147104789936e-02  2.0745668060149922e-02  2.0171888281362373e-02  2.2225679514514370e-02  2.1528244651568208e-02  2.3607995842499438e-02  2.2778898419951930e-02  -7.0864024958534524e-03  -3.9810755991000701e-02  2.4827481477642809e-02  2.3902061275817583e-02  2.5865865296919907e-02  2.4900889088066484e-02  2.6729471068482329e-02  1.3834356430288335e-02  2.6795937564013664e-02  2.5774787893658117e-02  2.5605714505836923e-02  -3.6950217745185310e-02  -1.2113661789413196e-01  -1.4115147122078828e-01  -1.5772592555338810e-01  -1.6796909878087862e-01  -1.9409955491290259e-01  -1.9844503237235953e-01  -2.4081541850456725e-01  -2.3301968092536193e-01  -2.7844133183567482e-01  -2.6446938714407842e-01  -3.1841324012564387e-01  -2.9259795563671481e-01  -3.4455919757780279e-01  -3.1337346238376101e-01  -3.6162356995787626e-01  -3.2767935126189651e-01  -3.6910868314714051e-01  -3.3486411552091083e-01  -3.6955761781788138e-01  -3.3641452479833878e-01  -3.6488727656706799e-01  -3.3412684555840289e-01  -3.5745696679663758e-01  -3.2953604144055021e-01  -3.4847712868822828e-01  -3.2360232652602278e-01  -3.3758935510463955e-01  -3.1501595886043171e-01  -2.9944062540021094e-01  -2.9493325202759751e-01  -3.0820051348943511e-01  -2.9007270261560658e-01  -3.0251159273081712e-01  -2.8523267548283943e-01  -2.9480129941470673e-01  -2.7957261792306898e-01  -2.7732818810735144e-01  -2.7683323629906298e-01  -3.0578351559427491e-01  -2.8759825793602239e-01  -2.7386382662308056e-01  -2.6424490667188455e-01  -2.6024005240597531e-01  -2.6817834265373092e-01  -2.5633057838726964e-01  -2.6242368999012711e-01  -2.5188290335439789e-01  -2.5669808125950899e-01  -2.4689316962650695e-01  -2.4739023438673396e-01  -2.2534701961180736e-01  -3.8153743352503855e-01  -2.5110031060636756e-01  -2.4208171944645007e-01  -2.3722042306130994e-01  -2.3310057392090969e-01  -2.3732190185540117e-01  -2.2922497120726248e-01  -2.3242675412071190e-01  -2.2505959341896178e-01  -4.1316156014863992e-01  -2.2458116061955824e-01  -2.2756293752197213e-01  -2.2092012947651593e-01  -3.9943499174227926e-01  -2.2286258283523361e-01  -2.1654009671208291e-01  -2.1453103525153808e-01  -2.1023380044903117e-01  -2.1209769013761434e-01  -2.0614582198939449e-01  -2.0387285991346074e-01  -2.0023780948774866e-01  -2.0202957665166735e-01  -1.9647988969632280e-01  -1.9782716493462060e-01  -1.9252099736437700e-01  -1.9105094973609160e-01  -1.8739177742180055e-01  -1.8843759991981834e-01  -1.8358504832427236e-01  -1.8430969288439059e-01  -1.7966115742479047e-01  -1.7077965552623817e-01  -3.2014635577576789e-01  -3.7318961217646546e-01  -1.8020014412678628e-01  -1.7569177368430697e-01  -1.7506966830446333e-01  -1.7112227622989781e-01  -1.7149477347575928e-01  -1.6711159204239542e-01  -1.7047902230491857e-01  2.7633167337205156e-02  2.6537938993677734e-02  2.8307955560538105e-02  2.7173542299004032e-02  2.8843976117402432e-02  2.7684841111612651e-02  -2.7375515779217419e-01  -2.8952965112884570e-02  3.7126375673049200e-03  -1.6722122358427649e-01  -1.6303956812181364e-01  -3.0129957416095554e-01  1.3414899134970197e-02  2.0654049327168182e-02  4.7347425472723612e-03  2.9251220022230535e-02  2.8074580797871319e-02  2.6399742946166479e-02  2.6795311781713828e-02  2.8348522338710744e-02  2.7073488091321717e-02  2.8498388113248122e-02  2.7240380637213613e-02  2.8550012530804886e-02  2.7319621608723609e-02  2.8492805264646575e-02  2.7291996395834899e-02  2.8344135233645942e-02  2.7178799641379741e-02  2.8114325849970288e-02  2.6961026604848341e-02  2.7783523860690884e-02  2.6654517681937048e-02  2.7357636992595250e-02  2.6252802691636653e-02  2.6836010681572039e-02  2.5765673946549144e-02  2.6245625326927799e-02  2.5199382192587581e-02  2.5584740216772636e-02  2.4547541114924409e-02  2.4842747985998379e-02  2.3827396868684788e-02  2.3991972128171151e-02  2.3018975232142896e-02  2.3151620968313621e-02  2.2156389632823806e-02  2.4540990507910646e-02  -1.8599136721338186e-01  -2.4048225483935215e-01  -1.6284770748090530e-01  -1.5879632068912805e-01  -1.5891607259545995e-01  -1.5462947408975258e-01  -1.5477259147087397e-01  -1.5047909840169255e-01  -1.5030966682628544e-01  -1.4621495390808292e-01  -1.4579830759261167e-01  -1.4180540514666118e-01  -1.4213145542767344e-01  -1.3778584161417731e-01  -1.3749802155446827e-01  -1.3342549954292027e-01  -1.3305257213018948e-01  -1.2