<?xml version="1.0"?>
<VTKFile type="UnstructuredGrid"  version="0.1"  >
<UnstructuredGrid>
<Piece  NumberOfPoints="2945" NumberOfCells="5525">
<Points>
<DataArray  type="Float64"  NumberOfComponents="3"  format="ascii">0 0.1 0  0.95 0.1 0  1 0.1 0  1 0 0  1.5 0 0  3 0 0  3 0.3 0  0 0.3 0  0.0197424558707114 0.1 0  0.03915669042224804 0.1 0  0.05824816022699029 0.1 0  0.07702223050332387 0.1 0  0.09548417327144595 0.1 0  0.1136391897583987 0.1 0  0.1314923700144587 0.1 0  0.1490487330862866 0.1 0  0.1663132263225292 0.1 0  0.1832906857273058 0.1 0  0.1999858946008978 0.1 0  0.216403545770297 0.1 0  0.2325482404045023 0.1 0  0.2484245348165176 0.1 0  0.2640368740372501 0.1 0  0.2793896589642241 0.1 0  0.2944872056237027 0.1 0  0.3093337469555254 0.1 0  0.3239334613687816 0.1 0  0.3382904528528069 0.1 0  0.3524087553122972 0.1 0  0.3662923366391824 0.1 0  0.3799451014768399 0.1 0  0.393370886920506 0.1 0  0.4065734648871676 0.1 0  0.419556546320114 0.1 0  0.4323237821343415 0.1 0  0.4448787573056132 0.1 0  0.4572250047274954 0.1 0  0.4693659926332938 0.1 0  0.4813051343276231 0.1 0  0.4930457849308193 0.1 0  0.5045912455271677 0.1 0  0.5159447600209797 0.1 0  0.5271095174127136 0.1 0  0.5380886618453393 0.1 0  0.5488852725463512 0.1 0  0.5595023868312478 0.1 0  0.5699429904313016 0.1 0  0.5802100167387366 0.1 0  0.5903063508274641 0.1 0  0.6002348329443006 0.1 0  0.6099982499579832 0.1 0  0.6195993483501782 0.1 0  0.6290408246013842 0.1 0  0.6383253354321616 0.1 0  0.6474554910757137 0.1 0  0.6564338522440513 0.1 0  0.6652629482939147 0.1 0  0.6739452579188948 0.1 0  0.6824832240165607 0.1 0  0.6908792415022103 0.1 0  0.6991356755989045 0.1 0  0.7072548438546967 0.1 0  0.7152390281534421 0.1 0  0.7230904746196039 0.1 0  0.7308113906759266 0.1 0  0.7384039435269326 0.1 0  0.7458702676581656 0.1 0  0.7532124631720397 0.1 0  0.7604325921167397 0.1 0  0.7675326856666862 0.1 0  0.7745147374421916 0.1 0  0.7813807123989068 0.1 0  0.7881325374362798 0.1 0  0.7947721131625659 0.1 0  0.8013013031866276 0.1 0  0.8077219449067021 0.1 0  0.8140358419942376 0.1 0  0.8202447685401882 0.1 0  0.8263504700910924 0.1 0  0.8323546643163114 0.1 0  0.8382590362474568 0.1 0  0.8440652473522128 0.1 0  0.8497749272799842 0.1 0  0.8553896837646281 0.1 0  0.8609110933285474 0.1 0  0.866340708855119 0.1 0  0.8716800550492284 0.1 0  0.8769306339052932 0.1 0  0.8820939206038667 0.1 0  0.8871713655604893 0.1 0  0.8921643975475726 0.1 0  0.8970744196575535 0.1 0  0.9019028106970642 0.1 0  0.9066509291259979 0.1 0  0.9113201098984042 0.1 0  0.9159116634553873 0.1 0  0.9204268818729691 0.1 0  0.9248670319440222 0.1 0  0.9292333656649013 0.1 0  0.9335271075812669 0.1 0  0.9377494640511216 0.1 0  0.941901623463222 0.1 0  0.9459847526686701 0.1 0  0.9538461538461205 0.1 0  0.9576923076922409 0.1 0  0.9615384615384381 0.1 0  0.9653846153846337 0.1 0  0.9692307692307542 0.1 0  0.9730769230768747 0.1 0  0.9769230769229952 0.1 0  0.9807692307691157 0.1 0  0.9846153846152361 0.1 0  0.9884615384614317 0.1 0  0.9923076923076356 0.1 0  0.9961538461538395 0.1 0  1 0.09591793123533533 0  1 0.09133596463859224 0  1 0.08619288104391448 0  1 0.08041996484521211 0  1 0.07394008421771697 0  1 0.06666666567302955 0  1 0.05850252932209174 0  1 0.04933859630113544 0  1 0.03905242821848202 0  1 0.02750659386753798 0  1 0.01454683679239736 0  1.015625 0 0  1.03125 0 0  1.046875 0 0  1.0625 0 0  1.078125 0 0  1.09375 0 0  1.109375 0 0  1.125 0 0  1.140625 0 0  1.15625 0 0  1.171875 0 0  1.1875 0 0  1.203125 0 0  1.21875 0 0  1.234375 0 0  1.25 0 0  1.265625 0 0  1.28125 0 0  1.296875 0 0  1.3125 0 0  1.328125 0 0  1.34375 0 0  1.359375 0 0  1.375 0 0  1.390625 0 0  1.40625 0 0  1.421875 0 0  1.4375 0 0  1.453125 0 0  1.46875 0 0  1.484375 0 0  1.515920751924515 0 0  1.531989369316721 0 0  1.54820720925872 0 0  1.564575665560501 0 0  1.581096138674279 0 0  1.597770029901263 0 0  1.614598783332311 0 0  1.631583831055205 0 0  1.64872661129721 0 0  1.666028606716533 0 0  1.683491276608443 0 0  1.701116134125304 0 0  1.718904673324128 0 0  1.736858414799339 0 0  1.754978895814663 0 0  1.773267661782904 0 0  1.791726281103402 0 0  1.810356325314689 0 0  1.8291593848892 0 0  1.848137076690385 0 0  1.867291007717254 0 0  1.886622833871288 0 0  1.90613418642363 0 0  1.925826753299799 0 0  1.945702199101513 0 0  1.96576223584749 0 0  1.986008569283268 0 0  2.006442931928877 0 0  2.02706707547783 0 0  2.047882750887917 0 0  2.06889175187935 0 0  2.090095860038271 0 0  2.111496891648636 0 0  2.133096679109554 0 0  2.154897066851056 0 0  2.176899916687499 0 0  2.199107102752146 0 0  2.22152053937028 0 0  2.244142122958061 0 0  2.266973806444078 0 0  2.290017523268154 0 0  2.313275249499252 0 0  2.336748971745516 0 0  2.360440702338606 0 0  2.384352453384031 0 0  2.408486280477412 0 0  2.432844240041185 0 0  2.457428414757088 0 0  2.482240901796653 0 0  2.507283830121838 0 0  2.532559332080812 0 0  2.558069568787417 0 0  2.583816724966441 0 0  2.60980299606584 0 0  2.636030600971886 0 0  2.662501790984011 0 0  2.689218818279327 0 0  2.716183964547616 0 0  2.743399548861297 0 0  2.77086788244719 0 0  2.798591312896326 0 0  2.826572223178268 0 0  2.854812990138617 0 0  2.883316031690714 0 0  2.912083780657189 0 0  2.941118704633482 0 0  2.970423276998917 0 0  3 0.02999999999994495 0  3 0.05999999999987042 0  3 0.089999999999783 0  3 0.119999999999701 0  3 0.149999999999619 0  3 0.179999999999692 0  3 0.2099999999997737 0  3 0.2399999999998511 0  3 0.2699999999999185 0  2.970138294777171 0.3 0  2.940375666438236 0.3 0  2.910711782853056 0.3 0  2.881146331305122 0.3 0  2.851678975030285 0.3 0  2.822309388626621 0.3 0  2.793037250095074 0.3 0  2.76386223529133 0.3 0  2.734784017903872 0.3 0  2.705802289276642 0.3 0  2.676916713794697 0.3 0  2.648126987654635 0.3 0  2.619432780406184 0.3 0  2.590833779385199 0.3 0  2.562329669847737 0.3 0  2.533920134950189 0.3 0  2.505604855727852 0.3 0  2.477383539822502 0.3 0  2.449255847639465 0.3 0  2.421221492569094 0.3 0  2.393280152486815 0.3 0  2.36543151914496 0.3 0  2.337675285481809 0.3 0  2.310011142385583 0.3 0  2.282438797441587 0.3 0  2.254957931061538 0.3 0  2.227568248063605 0.3 0  2.200269436651085 0.3 0  2.173061204949961 0.3 0  2.145943251515011 0.3 0  2.118915272469994 0.3 0  2.091976978084957 0.3 0  2.065128060700849 0.3 0  2.038368218849433 0.3 0  2.01169717777258 0.3 0  1.985114624111908 0.3 0  1.958620267850966 0.3 0  1.93221382054972 0.3 0  1.905894991850698 0.3 0  1.879663489459713 0.3 0  1.853519019126419 0.3 0  1.827461291053897 0.3 0  1.801490031354372 0.3 0  1.775604937580312 0.3 0  1.74980572560258 0.3 0  1.724092118631866 0.3 0  1.698463829173586 0.3 0  1.672920575782554 0.3 0  1.647462076974085 0.3 0  1.622088043536933 0.3 0  1.5967981978949 0.3 0  1.571592267767068 0.3 0  1.546469970305736 0.3 0  1.521431023814044 0.3 0  1.496475156230927 0.3 0  1.471602093687753 0.3 0  1.446811560490646 0.3 0  1.422103279101731 0.3 0  1.397476971708191 0.3 0  1.37293238939876 0.3 0  1.348469231419202 0.3 0  1.324087248732772 0.3 0  1.299786165921677 0.3 0  1.275565710847046 0.3 0  1.251425617644257 0.3 0  1.227365618676339 0.3 0  1.203385446174014 0.3 0  1.179484853067473 0.3 0  1.155663548773374 0.3 0  1.131921292279077 0.3 0  1.108257802159295 0.3 0  1.084672829009693 0.3 0  1.061166115303374 0.3 0  1.037737392995421 0.3 0  1.01438640299116 0.3 0  0.991112899770314 0.3 0  0.9679166155523955 0.3 0  0.944797284182564 0.3 0  0.921754678526042 0.3 0  0.8987885143602501 0.3 0  0.8758985548820624 0.3 0  0.8530845484099929 0.3 0  0.8303462351786988 0.3 0  0.8076833651172373 0.3 0  0.7850956864865304 0.3 0  0.7625829601354557 0.3 0  0.7401449314598274 0.3 0  0.717781337993959 0.3 0  0.6954919649675473 0.3 0  0.6732765357561226 0.3 0  0.6511348120768439 0.3 0  0.6290665642016573 0.3 0  0.6070715355430467 0.3 0  0.5851494825775325 0.3 0  0.5633001690203812 0.3 0  0.5415233562273221 0.3 0  0.5198187909431873 0.3 0  0.4981862401387795 0.3 0  0.4766254686134248 0.3 0  0.4551362360485234 0.3 0  0.4337182975262159 0.3 0  0.4123714223228037 0.3 0  0.3910953802377493 0.3 0  0.3698899313205595 0.3 0  0.3487548463710963 0.3 0  0.3276898864081783 0.3 0  0.3066948129116018 0.3 0  0.2857694003037476 0.3 0  0.2649134227095047 0.3 0  0.2441266417321288 0.3 0  0.2234088223399122 0.3 0  0.2027597568977288 0.3 0  0.1821792020676698 0.3 0  0.1616669305402443 0.3 0  0.1412227158799362 0.3 0  0.12084633013886 0.3 0  0.1005375673448281 0.3 0  0.08029618164595353 0.3 0  0.06012194778526769 0.3 0  0.04001466495039718 0.3 0  0.01997408913631205 0.3 0  0 0.2800000000000553 0  0 0.2600000000001105 0  0 0.2400000000001658 0  0 0.2200000000002211 0  0 0.2000000000002764 0  0 0.1800000000002244 0  0 0.1600000000001691 0  0 0.140000000000115 0  0 0.1200000000000564 0  1.133778471000506 0.01219539743990768 0  1.003741919047894 0.09354664821474232 0  0.9559421147150347 0.1035858189992458 0  0.9313792160389045 0.1037365237938103 0  0.9788461538460573 0.1033060829993555 0  0.9090102438250753 0.1037269304984056 0  0.8846304212778655 0.1043349840723655 0  0.8581503885465881 0.104741932962923 0  0.8286416220145676 0.1052762843984476 0  0.7982741772533339 0.1053575624517407 0  0.7708789559342691 0.1060290465840416 0  0.741870349714261 0.1078220590984258 0  0.7112469360040695 0.10685702926368 0  0.6783901541417233 0.1079959711853378 0  0.642884733623195 0.1075561996086514 0  0.6056235042367955 0.1085956039602543 0  0.5647007593786924 0.1083187281660325 0  1.1953125 0.01353164693413185 0  1.258148737344733 0.01268350115427042 0  1.320087046516829 0.01426312402966312 0  1.383495130751951 0.01432665475473204 0  1.4453125 0.01315663539200989 0  1.50886768312388 0.01395488397722681 0  0.9942307692307371 0.103330866937657 0  1.119309781943483 0.2802014914557878 0  1.572831235329714 0.01707210522554785 0  1.637611634353954 0.01209340368483431 0  1.709661292005932 0.0146870244871893 0  1.006561890631532 0.07068055446055937 0  1.784793444007901 0.01499371444634687 0  1.855459587353174 0.0
[...]
<PointData  Scalars="pressure"> 
<DataArray  type="Float64"  Name="pressure"  format="ascii">1.5676012675226303e-01  -1.7430228902212130e-01  -1.1667655083582756e-01  -6.4607868929053125e-02  4.0548647853387819e-02  0.0000000000000000e+00  0.0000000000000000e+00  1.5677880906865327e-01  1.5083740784280827e-01  1.4501295047173390e-01  1.3928505908654068e-01  1.3365209492005772e-01  1.2811240822486172e-01  1.2266444823991114e-01  1.1730662685814877e-01  1.1203736650649157e-01  1.0685521866378805e-01  1.0175855124319398e-01  9.6745894516391998e-02  9.1815838107383418e-02  8.6966830071854323e-02  8.2197470652458041e-02  7.7506248846553646e-02  7.2891786582037751e-02  6.8352561469536541e-02  6.3887260915436117e-02  5.9494355795804137e-02  5.5172557847321689e-02  5.0920242864847344e-02  4.6736157214351016e-02  4.2619188622070911e-02  3.8567338021703305e-02  3.4579545952927920e-02  3.0654240618933657e-02  2.6790234861913169e-02  2.2985908864979497e-02  1.9239856570622126e-02  1.5550703795116768e-02  1.1916957812348822e-02  8.3376137099230776e-03  4.8103650287429876e-03  1.3342409799456919e-03  -2.0921678854964737e-03  -5.4703995565654091e-03  -8.8021558436454702e-03  -1.2088663369716132e-02  -1.5331625182729243e-02  -1.8532415908271711e-02  -2.1692851636041920e-02  -2.4814294601679384e-02  -2.7898305676393977e-02  -3.0946382684982718e-02  -3.3960340363402071e-02  -3.6941475366653397e-02  -3.9891800539468961e-02  -4.2812573386325360e-02  -4.5705534505851637e-02  -4.8572718274451893e-02  -5.1415127097912586e-02  -5.4234847403034032e-02  -5.7034115873789676e-02  -5.9812680689269565e-02  -6.2573923606900117e-02  -6.5319327395767054e-02  -6.8049910812451306e-02  -7.0769515613386666e-02  -7.3477168097573126e-02  -7.6174459216041893e-02  -7.8865463974044592e-02  -8.1550878718959594e-02  -8.4233717951328849e-02  -8.6913224565322911e-02  -8.9591162613199035e-02  -9.2272887943476697e-02  -9.4957746974251078e-02  -9.7648396377431945e-02  -1.0034669879452938e-01  -1.0305487983463821e-01  -1.0577445428716278e-01  -1.0850862513002552e-01  -1.1125810972916735e-01  -1.1402563031926143e-01  -1.1681559191798188e-01  -1.1962949593110106e-01  -1.2246915100369699e-01  -1.2533930528954848e-01  -1.2824254408204985e-01  -1.3118183889556706e-01  -1.3416050323837025e-01  -1.3718874318863600e-01  -1.4026484909275547e-01  -1.4339688178831139e-01  -1.4659032417062998e-01  -1.4985670410532895e-01  -1.5320160445505818e-01  -1.5663464901556320e-01  -1.6017929719033441e-01  -1.6384188095777708e-01  -1.6764023538415304e-01  -1.7161870152849132e-01  -1.7581567951929022e-01  -1.7991349207268559e-01  -1.8685097884728991e-01  -1.9617915959552643e-01  -2.1247214407291215e-01  -2.1667903721893098e-01  -2.1416773489658938e-01  -2.0578024143711013e-01  -1.9341317248585987e-01  -1.7831562079273794e-01  -1.6186983419916401e-01  -1.4506218641908575e-01  -1.2873602217880617e-01  -1.1536791014117161e-01  -9.2754299020667605e-02  -1.1369858000624225e-01  -9.0148273389432945e-02  -8.2470492029861772e-02  -7.6678267724841376e-02  -7.2771040141228691e-02  -6.9807348061709643e-02  -6.7496355228155919e-02  -6.5797423833453231e-02  -6.4681174033027491e-02  -6.4167204270268341e-02  -6.4314989835562456e-02  -6.4970764862163216e-02  -6.4991371487331792e-02  -6.4270054351976455e-02  -6.2975177461716367e-02  -6.1270942353601213e-02  -5.9335333903140726e-02  -5.7309183743235542e-02  -5.5315578095790248e-02  -5.3507124015583718e-02  -5.1997508980305973e-02  -5.0875360025891180e-02  -5.0183192991854322e-02  -4.9919277811524124e-02  -5.0041675673362485e-02  -5.0456169910325234e-02  -5.1008118850131998e-02  -5.1494288996292242e-02  -5.1719943693573474e-02  -5.1445571944645822e-02  -5.0262793293819254e-02  -4.8265311400491208e-02  -4.4939929775888433e-02  -4.0357024743814474e-02  -3.4437388035501414e-02  -2.7228009497493651e-02  -1.8829405108134648e-02  -9.4821038585689802e-03  5.0728787825784485e-04  1.0827403182138130e-02  2.1150353644027529e-02  3.1150785858691660e-02  4.9255329415141061e-02  5.6945450851220332e-02  6.3486989705655431e-02  6.8713060823977559e-02  7.2702537199353587e-02  7.5398336471528646e-02  7.6870513353105616e-02  7.7208783784969995e-02  7.6454879860129957e-02  7.4802898809556456e-02  7.2403449587121013e-02  6.9401615928114987e-02  6.5933802981218620e-02  6.2190397014381130e-02  5.8328679184027822e-02  5.4540745640340581e-02  5.1010068525158055e-02  4.8011950911626397e-02  4.5532893148296415e-02  4.3943510399738428e-02  4.3248403151023455e-02  4.3524350727263579e-02  4.4804713493849332e-02  4.6984846208174481e-02  4.9942134329916073e-02  5.3466713926506149e-02  5.7253848324380116e-02  6.1109361509270800e-02  6.4715388204373114e-02  6.7806331901089603e-02  7.0207314369636134e-02  7.1769504895717970e-02  7.2419833212371748e-02  7.2146119352280338e-02  7.0972489328962315e-02  6.9005392426588666e-02  6.6355072406359378e-02  6.3182506670502306e-02  5.9630920668349831e-02  5.5877989716691133e-02  5.2089016145324241e-02  4.8426136391755734e-02  4.5027651346494425e-02  4.2014057019421999e-02  3.9461038750770991e-02  3.7412966674503015e-02  3.5854055839423644e-02  3.4721937936168401e-02  3.3923601967133996e-02  3.3337646439628610e-02  3.2827918867784273e-02  3.2262118380434884e-02  3.1537256252908784e-02  3.0590807696966843e-02  2.9360926828468810e-02  2.7821794133400694e-02  2.6062173149272966e-02  2.4032840906123707e-02  2.1853627355794009e-02  1.9554782015474594e-02  1.7191822704228966e-02  1.4759745013647780e-02  1.2330491760257106e-02  9.8928924518548542e-03  7.4543125033195157e-03  5.0323686358718011e-03  2.5511047442358446e-03  0.0000000000000000e+00  0.0000000000000000e+00  0.0000000000000000e+00  0.0000000000000000e+00  0.0000000000000000e+00  0.0000000000000000e+00  0.0000000000000000e+00  0.0000000000000000e+00  0.0000000000000000e+00  2.7769627543482709e-03  5.3698418658147751e-03  7.9415417939736853e-03  1.0395075191752355e-02  1.2738058817210530e-02  1.4973204190836704e-02  1.7115963448334617e-02  1.9194348941795961e-02  2.1252629635919916e-02  2.3350436467646726e-02  2.5552859989155231e-02  2.7918121668043645e-02  3.0483173344810172e-02  3.3252863030504475e-02  3.6183048550997965e-02  3.9174079092311645e-02  4.2086739782456604e-02  4.4719749757686750e-02  4.6872113362937458e-02  4.8336195305088425e-02  4.8944281500236143e-02  4.8599317576968774e-02  4.7299089261684607e-02  4.5175062959558497e-02  4.2465395990280597e-02  3.9538091647132019e-02  3.6821586466192567e-02  3.4726817662076311e-02  3.3637669436352345e-02  3.3775819190238476e-02  3.5226659583303149e-02  3.7851984881656982e-02  4.1543544412267097e-02  4.5763421500226165e-02  5.0428046211097706e-02  5.5135275769455490e-02  5.9594276014712656e-02  6.3548565363240467e-02  6.6721267106410936e-02  6.9079462147115217e-02  7.0164781565144066e-02  6.9903668931962856e-02  6.8097958799227851e-02  6.4600007034553611e-02  5.9370907716564524e-02  5.2545902745019142e-02  4.4390504374088917e-02  3.5383521317677365e-02  2.6034165643313761e-02  1.6986634590914002e-02  8.8375865561288094e-03  2.0395758942918902e-03  -3.2720793473054559e-03  -7.1815569895554909e-03  -9.7791810659492683e-03  -1.1517282624817571e-02  -1.2783788108703772e-02  -1.3967960371559817e-02  -1.5354427757715006e-02  -1.7178700889448863e-02  -1.9557454189112738e-02  -2.2571854988812437e-02  -2.6149862769895910e-02  -3.0321973891186536e-02  -3.4988705066791304e-02  -4.0042978341028726e-02  -4.5372473297742341e-02  -5.0844324751414725e-02  -5.6325767988750844e-02  -6.1714955120047092e-02  -6.6812609722170610e-02  -7.1661354849153105e-02  -7.6088323173502240e-02  -7.9991640071327114e-02  -8.3133655640353826e-02  -8.5642733836342896e-02  -8.7193615380326620e-02  -8.7886632062403630e-02  -8.7832313830509226e-02  -8.6589294890407190e-02  -8.4523860424818256e-02  -8.1660039989844002e-02  -7.8186604857812730e-02  -7.4133221912505709e-02  -6.9565590591260509e-02  -6.4583148617576122e-02  -5.9307956929162811e-02  -5.3777747512127654e-02  -4.8016170905726886e-02  -4.2113221992808189e-02  -3.6073951591644435e-02  -2.9944776845447763e-02  -2.3742178395223565e-02  -1.7480697580369426e-02  -1.1176688417540066e-02  -4.8489042964290708e-03  1.4991101517152889e-03  7.8586024454954904e-03  1.4222451957827684e-02  2.0583785723066232e-02  2.6939621299181656e-02  3.3289314195832427e-02  3.9627542915875710e-02  4.5953542326710652e-02  5.2264863368219568e-02  5.8561161006467390e-02  6.4841223164697565e-02  7.1103305589607965e-02  7.7348258967250116e-02  8.3574201432032355e-02  8.9781714384389866e-02  9.5970160098980767e-02  1.0213915260854624e-01  1.0828890724698280e-01  1.1441904144114200e-01  1.2052955250927080e-01  1.2662038607122786e-01  1.3269151205948951e-01  1.3874292760989562e-01  1.4477462185889534e-01  1.5078658368751052e-01  1.5677875667936828e-01  1.5677798579776159e-01  1.5677606647568088e-01  1.5677309093157576e-01  1.5676947230999588e-01  1.5676585945138019e-01  1.5676287284571105e-01  1.5676096822917429e-01  1.5676019391804519e-01  -5.4135533020279562e-02  -9.3241350651480814e-02  -2.0881652353731769e-01  -1.7021765747850820e-01  -1.6634722861913503e-01  -1.5186951459976900e-01  -1.3590956439386970e-01  -1.2122218641825511e-01  -1.0695050318066419e-01  -9.3807620456719032e-02  -8.2913531715558444e-02  -7.2095570362356004e-02  -6.1239043800699569e-02  -5.0089275751666641e-02  -3.8439014131428396e-02  -2.6534308908267499e-02  -1.3714467604651651e-02  -4.9716611567726332e-02  -5.0857795037232756e-02  -4.9212258726154659e-02  -3.1011840486261447e-02  4.8466590229178938e-03  4.4612222749283482e-02  -1.0572377927483402e-01  -6.3945657020687247e-02  7.0249789469004745e-02  7.6757534313097078e-02  6.7840228195430757e-02  -7.1883412852266848e-02  5.2490282105455553e-02  4.3535446558157075e-02  -4.9360930254283366e-04  4.7927381665389096e-02  -4.2210133734385008e-02  -2.3523965326015108e-02  6.3061290395160188e-02  -1.3944659711096215e-02  1.3940549774522264e-02  -5.7299705379720463e-03  7.1887782394717964e-02  2.8055190916510916e-02  -5.9983555209308655e-02  6.7776457854227951e-02  3.0343893613536031e-02  -7.7296562445019049e-02  4.4214848361131466e-02  5.4125498833039708e-02  6.9282910530955200e-02  6.1986208011475738e-02  6.8413547902741290e-02  4.0718383834280995e-02  5.7481736820662412e-02  -8.6956767928040357e-02  3.4119976275822639e-02  7.9851226791088192e-02  4.3761871824778600e-02  -8.5281197357319247e-02  -7.5660985941392395e-02  3.4272224383808628e-02  3.1866511552410624e-02  9.9749455624381644e-02  1.1455421044306761e-01  5.5872313841114941e-02  2.8606220773148328e-02  2.2715795451232073e-02  -5.6779919861578786e-02  3.5418256351373863e-02  4.6181938847861433e-02  -3.8846108670331864e-02  -1.8275877695626513e-01  -2.0786964370895275e-01  -2.0772266574670354e-02  4.8654445946954068e-02  1.6054443904781196e-02  3.8166046167855761e-03  4.0640393410365655e-02  3.6285007654975970e-02  3.1798749170479326e-02  6.7973029448145275e-02  2.4367542744543978e-02  8.6576602622200668e-02  1.2344447639898828e-01  1.0535939375199918e-01  1.8094346920520615e-02  1.5172588851194777e-01  2.3953530396137765e-03  1.3107182201967429e-01  -6.5734061785370265e-02  1.1739868265068436e-02  8.4575159393145919e-03  -7.8852665507052444e-02  -6.3336460262221159e-02  -8.3532285610557186e-02  -5.3290160333544195e-02  -6.7154704583309036e-02  -7.9644378835804375e-03  1.7100099489624900e-02  4.9847642395386985e-02  5.1004834284480750e-03  -1.1598641530534002e-02  -1.7388008221247128e-02  -3.2054287239990972e-02  8.9390870851666540e-02  7.0702591082129285e-02  4.0629832552662053e-02  4.5856105684356809e-02  5.3510261132519055e-02  3.2997830522302922e-02  1.3562058384983222e-01  3.6466053192818607e-02  4.6798890522627618e-02  3.6265542017697196e-02  6.1557085396176589e-02  1.5169721459040325e-01  7.1556005667771025e-02  2.1209617825502909e-02  6.8323522654824415e-02  5.5243741723519854e-02  5.9576586667517369e-02  4.3694780987503450e-02  6.4331532407542556e-03  4.6760371967628604e-02  6.0413777550812835e-02  7.3740186069726515e-02  -7.2584067752908743e-03  7.5919448216611243e-02  1.9562488195200962e-03  -2.0124312405534545e-02  -3.2512497728190176e-02  -4.4534371587433778e-02  -5.5350763115368504e-02  -6.6917472534930092e-02  -7.7601080162414154e-02  -8.8606283608922878e-02  -1.0180944632231667e-01  -5.1138868214387491e-02  -1.1556602021957087e-01  -1.3000555605300612e-01  -1.4529112312643833e-01  -4.9845287918002960e-02  -1.6188378642273246e-01  -4.3026931209971024e-02  -5.1195571055783727e-02  -1.6230133374644903e-02  2.5311775767598545e-02  1.5211671196416143e-01  -1.3296159285790893e-01  2.5181940491718160e-03  1.4211032405852020e-01  6.6081636385315031e-03  -6.4639512440183039e-02  1.9749571753355194e-03  1.5225528193328131e-01  -6.4240857233960266e-02  -6.3849339512205935e-02  -6.2884583028062907e-02  -6.3786306626468559e-02  -6.2746448778906116e-02  -6.3917946432766062e-02  -6.2618285838425561e-02  -6.4016313294062432e-02  -6.2410715269456317e-02  -6.3799789050516281e-02  -6.1812967295827359e-02  -6.3016789904965342e-02  -6.0601564273718447e-02  -6.1588071117719370e-02  -5.8825389683633739e-02  -5.9773890974106625e-02  -5.6692228878850386e-02  -5.7952254767075863e-02  -5.4872221637411275e-02  -5.6829743445856250e-02  -5.3670003053227930e-02  -6.0253860232526775e-02  -5.1517954025061916e-02  -5.0570874777387351e-02  -5.9719485646233424e-02  -6.3615508902660711e-02  -4.8379503011397727e-02  -4.7757532547593143e-02  -4.5881389681646678e-02  -4.5563000716678723e-02  -4.3866772829961778e-02  -4.4065996681516242e-02  -4.2819907752914478e-02  -4.3386283106263482e-02  -4.2706925079859619e-02  -4.3610206177607636e-02  -4.3663309946934528e-02  -4.4436475909536644e-02  -4.5445757116730524e-02  -4.5758346318281150e-02  -4.7737047467624659e-02  -4.6967955910841706e-02  -5.0005668589242137e-02  -4.8288887890793476e-02  -5.1732330764859571e-02  -4.8586651983341521e-02  -5.2299495229527947e-02  -4.7460313832476411e-02  -5.1138814594346362e-02  -4.4804668376568359e-02  -4.7577819553043466e-02  -6.3412061745560994e-02  -6.7768774763378156e-02  -4.0421573839603132e-02  -4.2422264384196967e-02  -3.4536056669907271e-02  -3.4180103545996092e-02  -2.7047349686107398e-02  -2.5219089002123760e-02  -1.8637832938228537e-02  -1.4722775634299337e-02  -9.8141752027797857e-03  -3.6237555401221542e-03  -5.0633616102226178e-02  -1.0620489235134731e-03  7.4247768578460738e-03  7.2587075786449216e-03  1.7730873175109858e-02  1.4681388266539619e-02  2.6898374780293079e-02  -6.7631496206361358e-02  -7.2525031829675901e-02  -6.4200695768097824e-02  2.1265208460060431e-02  3.4769064603387481e-02  -6.8438989577228160e-02  2.7297654217206844e-02  4.1282616704853399e-02  3.2166097203876649e-02  4.6402100619052949e-02  3.6586077460688912e-02  5.0324831714168045e-02  -4.4822311522768228e-02  3.9779104792542937e-02  5.3096163633570913e-02  4.3703659232271430e-02  5.5186501470745081e-02  4.6965905805121999e-02  5.6489544347229768e-02  -5.7804034641642021e-02  -4.4365989898915971e-02  4.9895265762480143e-02  5.7244875393681463e-02  -7.1966769051366605e-02  -7.7865167075218650e-02  -6.7327564789211550e-02  -4.4261453231297578e-02  5.2124818584201087e-02  5.7566079103062370e-02  5.4571889466463318e-02  5.7505687519955072e-02  5.6704696189353608e-02  5.7180846933009871e-02  3.9406356543037917e-02  6.2545047326405215e-02  5.9252312173671953e-02  4.5805976301244037e-03  5.8451252973906659e-02  5.6825090129248815e-02  5.5933489121023541e-02  5.3812213279831975e-02  5.6403570121110011e-02  5.2016051012404953e-02  5.6015911574522119e-02  5.0611934829294575e-02  5.5769487780507325e-02  4.9876178911460116e-02  5.5708720431059858e-02  4.9701874972336982e-02  5.5716540748373844e-02  5.0096676001966330e-02  5.5932535471955987e-02  5.0945347301321948e-02  5.5905320129679158e-02  5.1811982145979138e-02  5.5692464295876778e-02  5.2957832856965523e-02  5.5176149815411663e-02  5.3864570683871828e-02  5.4182503451434341e-02  5.4370204081787360e-02  -3.1541200718390457e-02  -3.6928337097196437e-02  5.2607836480625642e-02  5.4356106861205691e-02  5.0701116603723589e-02  5.3733853578324199e-02  -4.3166623144934788e-02  4.8451577530232520e-02  5.2752635001405999e-02  -5.4455203040999475e-02  -4.7008944390688853e-02  -7.6058243159118716e-02  -8.1635579618542092e-02  -8.5211055804791699e-02  -8.8681036642663150e-02  -9.3458787188363202e-02  -9.6425987453810702e-02  -1.0247068410872907e-01  -1.0432944576115115e-01  -1.1219620293366647e-01  -1.1192082301206636e-01  -1.2143760816221146e-01  -1.1852158940884526e-01  -1.2945938300706691e-01  -1.2427856388286085e-01  -1.3703173346334968e-01  -1.2933874258555991e-01  -1.3888987449593213e-01  -1.3010849007454306e-01  -1.3959201520476339e-01  -1.3187741344468765e-01  -1.3876424826136266e-01  -1.3091866354980705e-01  -1.3645625680059359e-01  -1.2885736134774844e-01  -1.3320138765759790e-01  -1.2607221459238460e-01  -1.2940178317934273e-01  -1.2272439325899226e-01  -1.2419153109171176e-01  -1.1902642802261985e-01  -1.1607787624530250e-01  -1.1902798887691737e-01  -1.1286534050609286e-01  -1.1513381714418650e-01  -1.0941811262062920e-01  -1.1127240027991829e-01  -1.0585633419496371e-01  -1.0701433218029831e-01  -1.0797205256711800e-01  -1.0223618363270538e-01  -1.0309266609743170e-01  -9.8282701564944341e-02  -9.7076867696759855e-02  -9.3477912558572726e-02  -9.4327319890420591e-02  -8.9823176817951697e-02  -9.0217944652662696e-02  -8.6068546136541732e-02  -9.7952279950204307e-02  -8.6134204811490103e-02  -8.2230667381995456e-02  -8.1755238978041600e-02  -7.8126571750186780e-02  -7.8407546360834440e-02  -7.4444074694332715e-02  -7.4559279733381584e-02  -7.0726298398488444e-02  -1.4129613195775936e-01  -1.2034097691985832e-01  -1.2135660529047237e-01  -1.4752827100350713e-01  -7.0673043163714769e-02  -6.6942454465612519e-02  -6.6886341773678470e-02  -6.3156777036195974e-02  -6.3102615167771464e-02  -5.9396111754712072e-02  -5.9194829654810682e-02  -5.5565084680839698e-02  -5.5715268826063064e-02  -5.1952981055622946e-02  -5.1632301847330683e-02  -4.8109022439996596e-02  -9.2169406655299463e-02  -4.7657410191539899e-02  -4.4253073367301381e-02  -1.4443318223219920e-01  -1.0312362113412298e-01  -7.7580777876694845e-02  -1.3604756289789777e-01  -4.3728781243589275e-02  -4.0271168642425970e-02  -4.1031891193550593e-02  -3.6833235328992485e-02  -3.6347272805757530e-02  -3.2776594176251804e-02  -3.3263401693786367e-02  -2.9224553952673440e-02  -2.8705423066592340e-02  -2.5177862769304234e-02  -1.1663934321985669e-01  -2.4633825227430923e-02  -2.1052992958251346e-02  -5.1887397906560287e-02  -9.3621975415294226e-02  -2.0519455684476828e-02  -1.0752469788042691e-01  -2.1615748874728957e-02  -1.7482825739306516e-02  -1.6907569091917027e-02  -1.3346337446918752e-02  4.5944580542615410e-02  5.1273637728162194e-02  4.3644931833077175e-02  4.9786665617231080e-02  4.1823484844823643e-02  4.8336503827968245e-02  -1.2593787134033857e-02  -9.0876986379628787e-03  9.2091542961212306e-03  -9.7295110144113572e-03  -5.5040871656373306e-03  -4.9786166469882138e-03  -1.3006519210138818e-03  -6.5332867786167523e-02  -8.6108299288042311e-02  -7.8383687249163170e-02  4.4647910056502586e-02  4.0596156273441771e-02  4.7190287527237626e-02  5.3897549307674063e-02  5.4467066949188583e-02  5.5538195749733801e-02  5.3948584612672969e-02  4.6366242254841504e-02  5.2399389694598078e-02  4.5987733228949002e-02  5.0899934998607038e-02  4.5853468983466178e-02  4.9438422116408004e-02  4.5940585828986698e-02  4.8068411284779580e-02  4.6056905081933185e-02  4.6730027799995168e-02  4.6134548478900535e-02  4.5486021702722486e-02  4.6069036135763339e-02  4.4289323359747473e-02  4.5734795123072221e-02  4.3126889799813904e-02  4.5047568870836226e-02  4.1945347397707493e-02  4.4086391300764367e-02  4.0772337663687902e-02  4.2835654838451268e-02  3.9524037987195865e-02  -7.5599312174375207e-04  2.9355892969313386e-03  2.6495834516673034e-03  6.7501493622603766e-03  7.2464788714464599e-03  1.1008257854336151e-02  4.1269981110967878e-02  3.8206524155801891e-02  