<?xml version="1.0"?>
<VTKFile type="UnstructuredGrid"  version="0.1"  >
<UnstructuredGrid>
<Piece  NumberOfPoints="2886" NumberOfCells="5412">
<Points>
<DataArray  type="Float64"  NumberOfComponents="3"  format="ascii">0 0.1 0  0.98 0.1 0  1 0.1 0  1 0 0  1.5 0 0  3 0 0  3 0.3 0  0 0.3 0  0.01975375321854102 0.1 0  0.03918897458218897 0.1 0  0.05831079002627837 0.1 0  0.07712425666319796 0.1 0  0.0956343475259058 0.1 0  0.1138459546796227 0.1 0  0.1317638870668193 0.1 0  0.1493928840275937 0.1 0  0.1667376092280033 0.1 0  0.1838026357802664 0.1 0  0.2005924801287244 0.1 0  0.2171115811543574 0.1 0  0.2333643037107681 0.1 0  0.2493549444060462 0.1 0  0.2650877293306821 0.1 0  0.2805668058011438 0.1 0  0.2957962848620976 0.1 0  0.3107801766802674 0.1 0  0.3255224447361181 0.1 0  0.3400269848175519 0.1 0  0.3542976327080778 0.1 0  0.3683381609158136 0.1 0  0.3821522744564845 0.1 0  0.3957436316838916 0.1 0  0.4091158196437086 0.1 0  0.4222723742184605 0.1 0  0.4352167733293057 0.1 0  0.4479524348643424 0.1 0  0.4604827295467524 0.1 0  0.4728109659990664 0.1 0  0.4849404035409129 0.1 0  0.4968742471455402 0.1 0  0.508615651843175 0.1 0  0.520167721130924 0.1 0  0.5315335063628542 0.1 0  0.5427160117228604 0.1 0  0.5537181940261912 0.1 0  0.564542961924507 0.1 0  0.575193173270606 0.1 0  0.5856716438765114 0.1 0  0.5959811458006617 0.1 0  0.6061243988680743 0.1 0  0.6161040893285659 0.1 0  0.6259228503970299 0.1 0  0.6355832809287655 0.1 0  0.6450879281079505 0.1 0  0.6544393102991295 0.1 0  0.663639896558931 0.1 0  0.6726921201956305 0.1 0  0.6815983691630338 0.1 0  0.6903610031396646 0.1 0  0.6989823343332418 0.1 0  0.7074646404270378 0.1 0  0.7158101645005117 0.1 0  0.7240211149852543 0.1 0  0.7320996585612525 0.1 0  0.7400479319727645 0.1 0  0.7478680336617921 0.1 0  0.755562036504958 0.1 0  0.7631319665092091 0.1 0  0.7705798279317605 0.1 0  0.777907588066146 0.1 0  0.7851171851013118 0.1 0  0.7922105226004981 0.1 0  0.7991894774550319 0.1 0  0.8060558928136696 0.1 0  0.812811583201334 0.1 0  0.8194583352091183 0.1 0  0.8259979035038147 0.1 0  0.8324320194413813 0.1 0  0.8387623808293405 0.1 0  0.8449906627004957 0.1 0  0.8511185094880469 0.1 0  0.8571475426008311 0.1 0  0.8630793533568246 0.1 0  0.8689155114558531 0.1 0  0.8746575581239063 0.1 0  0.8803070109173519 0.1 0  0.885865363938836 0.1 0  0.8913340851680313 0.1 0  0.8967146206523592 0.1 0  0.9020083930695622 0.1 0  0.9072167995950768 0.1 0  0.9123412183131177 0.1 0  0.9173830029719022 0.1 0  0.9223434865647732 0.1 0  0.9272239785872722 0.1 0  0.9320257720706087 0.1 0  0.9367501330378739 0.1 0  0.9413983102716995 0.1 0  0.9459715351562933 0.1 0  0.9504710127113115 0.1 0  0.9548979346500661 0.1 0  0.9592534708344373 0.1 0  0.9635387708980176 0.1 0  0.9677549682252325 0.1 0  0.971903177251235 0.1 0  0.9759844952956497 0.1 0  0.9840000000000086 0.1 0  0.987999999999974 0.1 0  0.9919999999999393 0.1 0  0.9959999999999913 0.1 0  1 0.09591793123533533 0  1 0.09133596463859224 0  1 0.08619288104391448 0  1 0.08041996484521211 0  1 0.07394008421771697 0  1 0.06666666567302955 0  1 0.05850252932209174 0  1 0.04933859630113544 0  1 0.03905242821848202 0  1 0.02750659386753798 0  1 0.01454683679239736 0  1.015625 0 0  1.03125 0 0  1.046875 0 0  1.0625 0 0  1.078125 0 0  1.09375 0 0  1.109375 0 0  1.125 0 0  1.140625 0 0  1.15625 0 0  1.171875 0 0  1.1875 0 0  1.203125 0 0  1.21875 0 0  1.234375 0 0  1.25 0 0  1.265625 0 0  1.28125 0 0  1.296875 0 0  1.3125 0 0  1.328125 0 0  1.34375 0 0  1.359375 0 0  1.375 0 0  1.390625 0 0  1.40625 0 0  1.421875 0 0  1.4375 0 0  1.453125 0 0  1.46875 0 0  1.484375 0 0  1.515920751924515 0 0  1.531989369316721 0 0  1.54820720925872 0 0  1.564575665560501 0 0  1.581096138674279 0 0  1.597770029901263 0 0  1.614598783332311 0 0  1.631583831055205 0 0  1.64872661129721 0 0  1.666028606716533 0 0  1.683491276608443 0 0  1.701116134125304 0 0  1.718904673324128 0 0  1.736858414799339 0 0  1.754978895814663 0 0  1.773267661782904 0 0  1.791726281103402 0 0  1.810356325314689 0 0  1.8291593848892 0 0  1.848137076690385 0 0  1.867291007717254 0 0  1.886622833871288 0 0  1.90613418642363 0 0  1.925826753299799 0 0  1.945702199101513 0 0  1.96576223584749 0 0  1.986008569283268 0 0  2.006442931928877 0 0  2.02706707547783 0 0  2.047882750887917 0 0  2.06889175187935 0 0  2.090095860038271 0 0  2.111496891648636 0 0  2.133096679109554 0 0  2.154897066851056 0 0  2.176899916687499 0 0  2.199107102752146 0 0  2.22152053937028 0 0  2.244142122958061 0 0  2.266973806444078 0 0  2.290017523268154 0 0  2.313275249499252 0 0  2.336748971745516 0 0  2.360440702338606 0 0  2.384352453384031 0 0  2.408486280477412 0 0  2.432844240041185 0 0  2.457428414757088 0 0  2.482240901796653 0 0  2.507283830121838 0 0  2.532559332080812 0 0  2.558069568787417 0 0  2.583816724966441 0 0  2.60980299606584 0 0  2.636030600971886 0 0  2.662501790984011 0 0  2.689218818279327 0 0  2.716183964547616 0 0  2.743399548861297 0 0  2.77086788244719 0 0  2.798591312896326 0 0  2.826572223178268 0 0  2.854812990138617 0 0  2.883316031690714 0 0  2.912083780657189 0 0  2.941118704633482 0 0  2.970423276998917 0 0  3 0.02999999999994495 0  3 0.05999999999987042 0  3 0.089999999999783 0  3 0.119999999999701 0  3 0.149999999999619 0  3 0.179999999999692 0  3 0.2099999999997737 0  3 0.2399999999998511 0  3 0.2699999999999185 0  2.970138294777171 0.3 0  2.940375666438236 0.3 0  2.910711782853056 0.3 0  2.881146331305122 0.3 0  2.851678975030285 0.3 0  2.822309388626621 0.3 0  2.793037250095074 0.3 0  2.76386223529133 0.3 0  2.734784017903872 0.3 0  2.705802289276642 0.3 0  2.676916713794697 0.3 0  2.648126987654635 0.3 0  2.619432780406184 0.3 0  2.590833779385199 0.3 0  2.562329669847737 0.3 0  2.533920134950189 0.3 0  2.505604855727852 0.3 0  2.477383539822502 0.3 0  2.449255847639465 0.3 0  2.421221492569094 0.3 0  2.393280152486815 0.3 0  2.36543151914496 0.3 0  2.337675285481809 0.3 0  2.310011142385583 0.3 0  2.282438797441587 0.3 0  2.254957931061538 0.3 0  2.227568248063605 0.3 0  2.200269436651085 0.3 0  2.173061204949961 0.3 0  2.145943251515011 0.3 0  2.118915272469994 0.3 0  2.091976978084957 0.3 0  2.065128060700849 0.3 0  2.038368218849433 0.3 0  2.01169717777258 0.3 0  1.985114624111908 0.3 0  1.958620267850966 0.3 0  1.93221382054972 0.3 0  1.905894991850698 0.3 0  1.879663489459713 0.3 0  1.853519019126419 0.3 0  1.827461291053897 0.3 0  1.801490031354372 0.3 0  1.775604937580312 0.3 0  1.74980572560258 0.3 0  1.724092118631866 0.3 0  1.698463829173586 0.3 0  1.672920575782554 0.3 0  1.647462076974085 0.3 0  1.622088043536933 0.3 0  1.5967981978949 0.3 0  1.571592267767068 0.3 0  1.546469970305736 0.3 0  1.521431023814044 0.3 0  1.496475156230927 0.3 0  1.471602093687753 0.3 0  1.446811560490646 0.3 0  1.422103279101731 0.3 0  1.397476971708191 0.3 0  1.37293238939876 0.3 0  1.348469231419202 0.3 0  1.324087248732772 0.3 0  1.299786165921677 0.3 0  1.275565710847046 0.3 0  1.251425617644257 0.3 0  1.227365618676339 0.3 0  1.203385446174014 0.3 0  1.179484853067473 0.3 0  1.155663548773374 0.3 0  1.131921292279077 0.3 0  1.108257802159295 0.3 0  1.084672829009693 0.3 0  1.061166115303374 0.3 0  1.037737392995421 0.3 0  1.01438640299116 0.3 0  0.991112899770314 0.3 0  0.9679166155523955 0.3 0  0.944797284182564 0.3 0  0.921754678526042 0.3 0  0.8987885143602501 0.3 0  0.8758985548820624 0.3 0  0.8530845484099929 0.3 0  0.8303462351786988 0.3 0  0.8076833651172373 0.3 0  0.7850956864865304 0.3 0  0.7625829601354557 0.3 0  0.7401449314598274 0.3 0  0.717781337993959 0.3 0  0.6954919649675473 0.3 0  0.6732765357561226 0.3 0  0.6511348120768439 0.3 0  0.6290665642016573 0.3 0  0.6070715355430467 0.3 0  0.5851494825775325 0.3 0  0.5633001690203812 0.3 0  0.5415233562273221 0.3 0  0.5198187909431873 0.3 0  0.4981862401387795 0.3 0  0.4766254686134248 0.3 0  0.4551362360485234 0.3 0  0.4337182975262159 0.3 0  0.4123714223228037 0.3 0  0.3910953802377493 0.3 0  0.3698899313205595 0.3 0  0.3487548463710963 0.3 0  0.3276898864081783 0.3 0  0.3066948129116018 0.3 0  0.2857694003037476 0.3 0  0.2649134227095047 0.3 0  0.2441266417321288 0.3 0  0.2234088223399122 0.3 0  0.2027597568977288 0.3 0  0.1821792020676698 0.3 0  0.1616669305402443 0.3 0  0.1412227158799362 0.3 0  0.12084633013886 0.3 0  0.1005375673448281 0.3 0  0.08029618164595353 0.3 0  0.06012194778526769 0.3 0  0.04001466495039718 0.3 0  0.01997408913631205 0.3 0  0 0.2800000000000553 0  0 0.2600000000001105 0  0 0.2400000000001658 0  0 0.2200000000002211 0  0 0.2000000000002764 0  0 0.1800000000002244 0  0 0.1600000000001691 0  0 0.140000000000115 0  0 0.1200000000000564 0  1.13346801534201 0.01255848438672509 0  1.003577645172735 0.09351054173913405 0  0.9777559943702486 0.1034978156913738 0  0.9524533750752109 0.1040889939962738 0  0.9296242411226409 0.1041520033606139 0  0.9046110503652111 0.104409422380137 0  0.8777709649694228 0.1053360318797398 0  0.8483859145648608 0.1061007868330701 0  0.8162363822948977 0.1052777104363292 0  0.7893110024210437 0.1060761643971561 0  0.7587949382612539 0.1067265405088633 0  0.7280603867732535 0.1069398153264939 0  0.6947001989413015 0.1075609887579097 0  0.6590363283767549 0.1076715322596598 0  0.6210028614493155 0.1072970410408442 0  1.1953125 0.01353164693413185 0  1.258193991486058 0.01269648635163345 0  1.3201967268638 0.01407907077719561 0  1.383538555392096 0.01434101079053473 0  1.445312500000001 0.01303671693628424 0  1.508925448095738 0.01398525724792267 0  0.9939176689634008 0.1034638089837981 0  1.120967497222226 0.2796788492172345 0  1.572835902117391 0.01424132418857359 0  1.637573277451887 0.01212536916586023 0  1.709730776795181 0.01466855431023635 0  1.005631976950563 0.07074019818158772 0  1.784944696816299 0.01454708406461822 0  0.5805605730631225 0.1101465090472147 0  1.855621181165637 0.01550931272897607 0  0.5366111276616774 0.1096761308243709 0  1.935200147913231 0.01760344159641829 0  1.214922267975168 0.2799787705802257 0  1.31178773425331 0.2792
[...]
<PointData  Scalars="pressure"> 
<DataArray  type="Float64"  Name="pressure"  format="ascii">-1.2476994485720030e-02  -8.6060913278345197e-01  -4.1815575894011379e-02  -3.0044105832782979e-02  2.9466658112605595e-02  0.0000000000000000e+00  0.0000000000000000e+00  -1.2410704570988149e-02  -1.8403087005833527e-02  -2.4234273547564744e-02  -2.9972361468612638e-02  -3.5618942311949467e-02  -4.1175707343538308e-02  -4.6644238785746070e-02  -5.2025902408488742e-02  -5.7322579022471822e-02  -6.2535636674231426e-02  -6.7666600094368076e-02  -7.2717308478315409e-02  -7.7689255396157855e-02  -8.2583799374940314e-02  -8.7402931341949763e-02  -9.2148211390302937e-02  -9.6820592999723079e-02  -1.0142285847626044e-01  -1.0595611528329686e-01  -1.1042205874272633e-01  -1.1482310581050158e-01  -1.1916055858577697e-01  -1.2343549253198174e-01  -1.2765132990187472e-01  -1.3180899252372769e-01  -1.3591158281648089e-01  -1.3996058575779438e-01  -1.4395697510951641e-01  -1.4790420681104530e-01  -1.5180490336599559e-01  -1.5566061495593067e-01  -1.5947382204982413e-01  -1.6324774720860374e-01  -1.6698386617202687e-01  -1.7068605384745222e-01  -1.7435631196868939e-01  -1.7799835122386806e-01  -1.8161503327929832e-01  -1.8520521167992618e-01  -1.8877950843205818e-01  -1.9233681880354825e-01  -1.9588050319633979e-01  -1.9941670111354062e-01  -2.0294848362304027e-01  -2.0647301013848260e-01  -2.1000479643500314e-01  -2.1354191553246005e-01  -2.1708929505244814e-01  -2.2065216989366299e-01  -2.2423468351119841e-01  -2.2784155819933866e-01  -2.3147912227469336e-01  -2.3515164321857424e-01  -2.3886362192382454e-01  -2.4261977242070293e-01  -2.4643191369478037e-01  -2.5029918445721933e-01  -2.5423084673332985e-01  -2.5822923293116512e-01  -2.6231232561831658e-01  -2.6648265710586277e-01  -2.7073746360980944e-01  -2.7509381151438744e-01  -2.7956748508536966e-01  -2.8415218464776454e-01  -2.8887063211226066e-01  -2.9373116706215163e-01  -2.9873437232211481e-01  -3.0390072855119865e-01  -3.0924218625898336e-01  -3.1477153967713811e-01  -3.2051576280792388e-01  -3.2647931288295096e-01  -3.3267258627458218e-01  -3.3910643086648862e-01  -3.4584750126193564e-01  -3.5288758421848232e-01  -3.6024878819729722e-01  -3.6797715256650909e-01  -3.7609568812720517e-01  -3.8464562720408918e-01  -3.9366823715448962e-01  -4.0324214354683924e-01  -4.1341182796110260e-01  -4.2422930571170819e-01  -4.3581649625393987e-01  -4.4827369202908923e-01  -4.6172831032588652e-01  -4.7635211367649549e-01  -4.9235388268108599e-01  -5.1000747137918145e-01  -5.2968879399473301e-01  -5.5191751141850154e-01  -5.7742892763660114e-01  -6.0723124943676532e-01  -6.4334235101496329e-01  -6.8869019920865304e-01  -7.4674852634525690e-01  -8.5559389375698214e-01  -1.7778334408172656e+00  -1.6286473448493137e+00  -1.1628332107856800e+00  -7.4066155717865634e-01  -1.4566813101050791e-01  -8.1736633218887314e-02  -6.7880028721567121e-02  -5.5041749304557540e-02  -4.6867213404691334e-02  -4.1078421095289405e-02  -3.6824281117350970e-02  -3.3450077945955052e-02  -3.0923646237241958e-02  -2.9449544406490495e-02  -2.9428871097192912e-02  -3.0800355003488135e-02  -3.0666422697519295e-02  -2.9047737894561172e-02  -2.6110315703350970e-02  -2.1964959620024448e-02  -1.6779931920671797e-02  -1.0715215299913126e-02  -3.9789993898830065e-03  3.0685966966680777e-03  1.0112367565945713e-02  1.6884678454354402e-02  2.3141464188878719e-02  2.8715115575142711e-02  3.3482955629088686e-02  3.7378196039727418e-02  4.0392940059608765e-02  4.2557163155053541e-02  4.3929380205730596e-02  4.4614499569657504e-02  4.4684572224946290e-02  4.4223430245070923e-02  4.3414180321214212e-02  4.2249680730716992e-02  4.0895197641052566e-02  3.9399966482640443e-02  3.7864113975773578e-02  3.6273089843932599e-02  3.4734656902833359e-02  3.3259370074332516e-02  3.1878635959959524e-02  3.0611091781529508e-02  2.8435025946454424e-02  2.7541531346886163e-02  2.6775131846348062e-02  2.6138374222175430e-02  2.5638457493769275e-02  2.5248387326822788e-02  2.4976475033409180e-02  2.4813056347449042e-02  2.4746861138492865e-02  2.4758088409167225e-02  2.4849914852228251e-02  2.5006784693089579e-02  2.5219135699982284e-02  2.5478496444480064e-02  2.5776715262684047e-02  2.6104462199287831e-02  2.6455237823065261e-02  2.6823643166876673e-02  2.7197560998187403e-02  2.7580171821501222e-02  2.7959353151179759e-02  2.8332757220518923e-02  2.8697892272328822e-02  2.9050229141059987e-02  2.9388030785578341e-02  2.9703028056622234e-02  3.0005073426239398e-02  3.0280942478120177e-02  3.0531666671115520e-02  3.0755597480272411e-02  3.0950355777052650e-02  3.1113083553264021e-02  3.1243061128425283e-02  3.1337787854952108e-02  3.1393144057694555e-02  3.1408521061286269e-02  3.1380449113118970e-02  3.1307847290200308e-02  3.1188295127969820e-02  3.1020451911484035e-02  3.0803297870908439e-02  3.0535650254832528e-02  3.0216319300644584e-02  2.9844975305361354e-02  2.9419444465223890e-02  2.8938708918759590e-02  2.8401566867534728e-02  2.7801230342353499e-02  2.7141384979917280e-02  2.6410907279263336e-02  2.5613445264983291e-02  2.4736158521540465e-02  2.3784339567940672e-02  2.2748899942025183e-02  2.1627599460036995e-02  2.0423071999622101e-02  1.9133126564018429e-02  1.7760960574035232e-02  1.6310469500496534e-02  1.4785168843901597e-02  1.3186450842340058e-02  1.1521181727422140e-02  9.7895451404834185e-03  7.9948849019181294e-03  6.1248888682546923e-03  4.1898949994269678e-03  2.1696814928444663e-03  0.0000000000000000e+00  0.0000000000000000e+00  0.0000000000000000e+00  0.0000000000000000e+00  0.0000000000000000e+00  0.0000000000000000e+00  0.0000000000000000e+00  0.0000000000000000e+00  0.0000000000000000e+00  1.4455275968288555e-03  2.8957413186241300e-03  4.3716105569509946e-03  5.8447591508424563e-03  7.3139072373113066e-03  8.7749153384805312e-03  1.0228585209641714e-02  1.1677335553106955e-02  1.3123622689427687e-02  1.4572007379833059e-02  1.6025416701653999e-02  1.7487371685209172e-02  1.8958277956491170e-02  2.0438780721816867e-02  2.1927547949324173e-02  2.3420949553139444e-02  2.4919468113693496e-02  2.6416685028147899e-02  2.7910761450923187e-02  2.9399382831262821e-02  3.0881861628201852e-02  3.2355049858693620e-02  3.3823653373192201e-02  3.5278360189392774e-02  3.6728358528148639e-02  3.8160741871303847e-02  3.9573067496537148e-02  4.0958108408816342e-02  4.2305288986418582e-02  4.3599445918386937e-02  4.4820841099154858e-02  4.5938490599920466e-02  4.6942708960666629e-02  4.7795241064854041e-02  4.8442079675661748e-02  4.8854183440882874e-02  4.9000903842784937e-02  4.8827462527949075e-02  4.8287692805590254e-02  4.7361001238306485e-02  4.5991978867611451e-02  4.4160113292222219e-02  4.1852410839668563e-02  3.9048282201963075e-02  3.5744620726288784e-02  3.1963874991849384e-02  2.7713505311822997e-02  2.3026754841600796e-02  1.7939865990521192e-02  1.2518546447819755e-02  6.7992270782538666e-03  8.3668215120305360e-04  -5.3128172946494065e-03  -1.1606848732518557e-02  -1.7995351597071919e-02  -2.4434684333254884e-02  -3.0900427665048660e-02  -3.7382880363105712e-02  -4.3830924884309036e-02  -5.0260563220246288e-02  -5.6680609812765667e-02  -6.3089973158664242e-02  -6.9517366517559853e-02  -7.5988118553859563e-02  -8.2541724989324217e-02  -8.9225544920075631e-02  -9.6093420964132023e-02  -1.0321466779771651e-01  -1.1064770556125066e-01  -1.1846859732464762e-01  -1.2676499072204631e-01  -1.3557903105240579e-01  -1.4492039928217582e-01  -1.5478891750009868e-01  -1.6495422568543872e-01  -1.7520701037640912e-01  -1.8514706320623103e-01  -1.9436042621502747e-01  -2.0250723048206787e-01  -2.0941582650260179e-01  -2.1456951201698657e-01  -2.1816572158922817e-01  -2.2014104288522104e-01  -2.2093372623384355e-01  -2.2044543400441299e-01  -2.1879306828981515e-01  -2.1631668073140983e-01  -2.1310054739861048e-01  -2.0920784675598400e-01  -2.0482903286408416e-01  -2.0000077881870101e-01  -1.9488405471071796e-01  -1.8950240449570016e-01  -1.8387769829389383e-01  -1.7811594067876735e-01  -1.7222855771330273e-01  -1.6622701784196198e-01  -1.6014439926624560e-01  -1.5401066871063146e-01  -1.4783710316697707e-01  -1.4162933572644895e-01  -1.3540242602617414e-01  -1.2915883450027393e-01  -1.2291436952111609e-01  -1.1666633104822360e-01  -1.1042215626426283e-01  -1.0418509086426182e-01  -9.7956584400691660e-02  -9.1740165113426114e-02  -8.5536890037380950e-02  -7.9347705058304088e-02  -7.3174049525523116e-02  -6.7016785489111788e-02  -6.0876491577884967e-02  -5.4753632110175122e-02  -4.8648983332726617e-02  -4.2562398459320465e-02  -3.6494306853354391e-02  -3.0445000568521934e-02  -2.4414477546508648e-02  -1.8403021104337114e-02  -1.2410961808266858e-02  -1.2413721218503674e-02  -1.2420452440666217e-02  -1.2431013186519175e-02  -1.2443838067302881e-02  -1.2456676186146595e-02  -1.2467259053068338e-02  -1.2474035225672687e-02  -1.2476784855682332e-02  -6.3551634553801588e-04  -7.9507721746064852e-02  -9.3936238777161207e-01  -5.6806285562583403e-01  -4.7111441433437112e-01  -4.0953491597859393e-01  -3.6540835358861828e-01  -3.3055843815009495e-01  -3.0179080283391274e-01  -2.8259641630846821e-01  -2.6432956742810709e-01  -2.4854063696415954e-01  -2.3346164453024815e-01  -2.1896184359440457e-01  -2.0476567577166191e-01  2.5085379316505278e-02  4.0772815779603122e-02  4.3869497249743698e-02  3.9775088057506049e-02  3.3915261105097141e-02  2.8960509816804998e-02  -5.9901738284826922e-01  -1.2150431197354164e-01  2.6042640617263146e-02  2.4935746822881376e-02  2.5264566591053708e-02  -4.3795858229085737e-02  2.6443675550744044e-02  -1.9065325894180607e-01  2.7808260298911387e-02  -1.7604153514988224e-01  2.9248275734214658e-02  -9.2477352051073380e-02  -6.6269786705187544e-02  3.0443643468051763e-02  -4.0791926132802990e-02  -1.6137782858530167e-01  -8.7624280968383959e-03  3.1132533264510594e-02  -1.4594414728090058e-01  -1.9098108564986681e-02  3.1323341068823028e-02  2.0059085227151541e-02  -1.4926952680213615e-01  -1.3017704980553191e-01  3.0814790041998209e-02  4.2591512074670629e-02  -1.1243767285547025e-01  4.7439096744565493e-02  2.9505456815900451e-02  4.8664152165838817e-02  -9.5012035225577454e-02  -1.7855683451919269e-01  2.7382932547736438e-02  4.7196778109850547e-02  -2.0487405348784141e-01  4.4051474100519197e-02  2.4155284408350727e-02  -2.1857405512728548e-01  -7.4727369718037118e-02  -6.0678244929681262e-02  3.3416811837969684e-02  2.0927184649461934e-02  1.6793671519412978e-02  4.0215760391560176e-02  -2.1940132714633592e-01  3.4515352745714885e-02  -6.6992233765384668e-01  -2.0718873237182830e-01  3.0216155937971750e-02  -4.3204918521502524e-02  -1.9216389647148527e-01  1.2291890121866754e-02  2.4283798684057212e-02  -1.7503236473298911e-01  -1.5075119871076909e-01  1.9764535134008481e-02  -1.1978461853925608e-01  1.5340682518588467e-02  -1.0101287884487128e-01  -8.2335221066103581e-02  1.0981790594882298e-02  -5.0807532876483756e-02  1.4964383450231696e-03  -1.8018507127005812e-02  -3.2691387060712125e-02  6.7115805001812991e-03  6.9028899592741208e-03  -3.3018620627238440e-02  -5.7874986115455482e-02  -2.7218853781260752e-02  -1.0639644155647608e-01  -2.1449110282820688e-01  -1.6363380074880712e-01  -1.3882841108234850e-01  -3.2744361477364023e-02  2.9446560656841369e-03  -2.7618085835903149e-02  -5.3406676683180179e-02  -7.9063549421544879e-02  -8.4699318853325711e-02  3.7480450911918359e-02  -1.0398261693531403e-01  -7.0131769894065790e-02  2.7257172728419803e-02  2.5909958720901873e-02  -1.2187086562355094e-01  2.8498619307602852e-02  3.0269233252682971e-02  -1.3769047676070326e-01  3.1163683773910038e-02  3.1309033230039522e-02  3.0806335116273436e-02  2.9909628558247039e-02  2.7271459784179851e-02  -1.5374921884135498e-01  2.8545208679823526e-02  2.7121855464099988e-02  -1.6884186148859034e-01  2.5789642200809017e-02  2.4969777402602637e-02  2.5285962773000988e-02  1.5586965069504112e-03  -1.8384326945204588e-01  -1.9718534496071982e-01  -1.7700745052966725e-02  -2.1147499124146721e-01  -2.2615252139471034e-01  -2.4089917208525813e-01  -2.5660255616034494e-01  -2.7329021867931841e-01  -2.9144315039082103e-01  1.3194619337856758e-02  -3.1816201811828093e-01  -3.5005033311971084e-01  -3.9022860203614002e-01  3.4593076200899846e-02  -4.4406019288623089e-01  4.2421043455243578e-02  4.3668952061094141e-02  3.7092769631225986e-02  3.1245855715050203e-02  -5.2283514219866078e-01  -1.3551935723734878e+00  1.3107424581483417e-03  -1.8156614025773146e-02  3.6095767926296405e-03  -3.0042650306846646e-02  -1.7460569637845803e-02  1.6857450360639509e-03  -2.1506413207893253e-02  -2.9169568373380275e-02  -2.8581585072583068e-02  -2.6652165769776040e-02  -2.8749070946845489e-02  -2.6684255430046096e-02  -2.8961537817255762e-02  -2.6220493274790469e-02  -2.8572802400191704e-02  -2.5393663371840260e-02  -2.7621570928013019e-02  -2.4423956348242296e-02  -2.7058008178577946e-02  -2.3807695442995054e-02  -2.8340921028088297e-02  -2.5037393507548304e-02  -3.2627497392128640e-02  -2.9208547712595564e-02  -4.0338859664885193e-02  -3.6699752584086046e-02  -5.0950943515661255e-02  -4.6002875854755189e-02  -5.6967244594936732e-02  -3.0280545232863689e-02  -4.1456036007715254e-02  -6.8487538047755286e-02  -7.6618734496740462e-02  -2.7138722387886595e-02  -3.7344516601644645e-02  -2.2342436296055809e-02  -3.4256143953103821e-02  -1.8161670119993225e-02  -3.2318870622259098e-02  -1.4613177746998681e-02  -2.8469584182230282e-02  -1.1214089243347171e-02  -2.8450823617128872e-02  -9.6329817950201492e-03  -2.4629725087682356e-02  -7.4709724597238113e-03  -2.3166045951830635e-02  -6.0282147475192727e-03  -2.1797097533027460e-02  -5.0259208197662563e-03  -2.0859997749268500e-02  -4.3335925753731526e-03  -1.9501750523052908e-02  -3.8117414348084128e-03  -1.8613928774653059e-02  -3.4474894795123757e-03  -1.7317759560383283e-02  -3.9704070013552297e-03  -1.6086001806440608e-02  -1.6600645229457227e-03  -8.7992383928180790e-02  -1.0014173122033478e-01  -1.5207167748232938e-02  -2.3489597065008121e-03  -1.3124967439056766e-02  -1.3599013835984125e-03  -1.1826648243711850e-02  -4.9994088452869415e-04  -9.8882519181658253e-03  6.5897453805536924e-04  -5.2670591664328463e-02  -7.6262203331127409e-03  2.0265890676435835e-03  -6.3709807167683557e-03  3.4078734991201953e-03  -2.6340381119364987e-03  5.3516343847095161e-03  -1.0808882268719716e-01  -1.2547483491688577e-01  -3.0829471832644891e-02  -5.4196814629269563e-06  7.3109675948512861e-03  2.9307710432334424e-03  9.3873063941207566e-03  5.8668980558251897e-03  1.1580739834163250e-02  -9.3218744814913157e-02  8.9068888282496875e-03  1.3852331529836155e-02  -4.7261890298857065e-02  1.1962835390645179e-02  1.6159749017751291e-02  1.5002865798067554e-02  1.8501253696999526e-02  1.8043158558831131e-02  2.0784365410848764e-02  -1.9929084929150572e-02  -4.0546223994013995e-02  2.0956263101539425e-02  2.3062414035234086e-02  -1.2747200518618848e-01  -1.4553420285255250e-01  -1.1348960185325258e-01  -3.4994719291395013e-02  2.3779729092040538e-02  2.5280675943460028e-02  2.6487224001422977e-02  2.7385432462612665e-02  2.9022562231535570e-02  2.9319989100548068e-02  1.2615342237925561e-02  2.4672017209232393e-02  1.6534079115850323e-02  1.0152174358621889e-02  3.1377271574937741e-02  3.1133417925980233e-02  2.9124948917378969e-02  3.0440085693699662e-02  3.2777356031109782e-02  3.1638172084031815e-02  3.4232194171981589e-02  3.2741953101434740e-02  3.5544467984208288e-02  3.3779461708975174e-02  3.6683973783494986e-02  3.4656633783651768e-02  3.7637439523049668e-02  3.5407519824057571e-02  3.8494472202901975e-02  3.6059883390582345e-02  3.9102865004444702e-02  3.6437894517748246e-02  3.9559951349386266e-02  3.6847216671990611e-02  3.9900294274544182e-02  3.7118284271717643e-02  4.0193599538972696e-02  3.7321474396682638e-02  8.7538386737075046e-03  -3.0137012945909616e-02  4.0283127264247341e-02  3.7396576723306492e-02  4.0176644048313781e-02  3.7409423684161683e-02  -3.9532563800339700e-03  1.0700192696492845e-02  3.9982948440371563e-02  3.7303015250214254e-02  8.2484675186040770e-03  -2.2024551625504717e-02  -1.4265499641684101e-01  -1.6177152548859619e-01  -1.7265716222181149e-01  -1.8671297371777129e-01  -2.0647193542266931e-01  -2.1485643454043105e-01  -2.4838863625290916e-01  -2.4643620934390997e-01  -2.8361291666186472e-01  -2.7541707919459962e-01  -3.1977232411352124e-01  -3.0121238967595143e-01  -3.4465892399854775e-01  -3.2050751668201100e-01  -3.6100198965913283e-01  -3.3388017543601239e-01  -3.6869968280555504e-01  -3.4085172942615799e-01  -3.6999934361046033e-01  -3.4275909586344655e-01  -3.6663932808769811e-01  -3.4116268436664016e-01  -3.6068857663468729e-01  -3.3742291847302713e-01  -3.5323460337267831e-01  -3.3239968380545454e-01  -3.4402040178262894e-01  -3.2501782953375719e-01  -3.1202025020986884e-01  -3.0799210457147486e-01  -3.1903003980073885e-01  -3.0358862749379728e-01  -3.1391552421776281e-01  -2.9914541450949256e-01  -3.0703650879068484e-01  -2.9396821534114836e-01  -2.9138598391216514e-01  -2.9281192110478849e-01  -3.1735059389993858e-01  -3.0055478116394635e-01  -2.8870281625267402e-01  -2.8073723079168378e-01  -2.7690005371467613e-01  -2.8342431716296074e-01  -2.7310636968163160e-01  -2.7806072724574726e-01  -2.6883897763693254e-01  -2.7270811191039313e-01  -2.6409898692001721e-01  -2.6562625062240153e-01  -2.3009492241811852e-01  -3.7301504018007692e-01  -2.6746053039665924e-01  -2.5948813958884698e-01  -2.5557033278317243e-01  -2.5153219662190240e-01  -2.5490863721285434e-01  -2.4769342930745583e-01  -2.5020162615648028e-01  -2.4360445183708715e-01  -4.0429592931496283e-01  -2.4391892356246497e-01  -2.4552052561578561e-01  -2.3953552290740568e-01  -3.9500693010338195e-01  -2.4099146697286553e-01  -2.3525498868446029e-01  -2.3378871015062003e-01  -2.2952284890994720e-01  -2.3090225402340903e-01  -2.2544524959158538e-01  -2.2371881364021687e-01  -2.2001793093618568e-01  -2.2134554879545765e-01  -2.1621462532066077e-01  -2.1717067640130747e-01  -2.1222744740946875e-01  -2.1117418103645880e-01  -2.0743643175171972e-01  -2.0813168214599559e-01  -2.0357449955360707e-01  -2.0400952363551794e-01  -1.9961789659138049e-01  -1.9288706998137792e-01  -3.2891163322153666e-01  -3.7378093204485840e-01  -1.9991487595561794e-01  -1.9562870928146975e-01  -1.9526574115520479e-01  -1.9126849853966280e-01  -1.9142543449442057e-01  -1.8721945779385393e-01  -1.9088829258957735e-01  3.9803829205285489e-02  3.7163734438009868e-02  3.9476593831653382e-02  3.6921034626099032e-02  3.9041558631465870e-02  3.6600350067486749e-02  -2.8794390670287795e-01  -7.7238447769452413e-03  -3.0903056344585039e-02  -1.8715333443948137e-01  -1.8312566581749412e-01  -3.1232398082257590e-01  3.2564353005226941e-02  3.4728468151467747e-02  2.8623978932272906e-02  3.8515033795248392e-02  3.6214324987116346e-02  3.4477736992793918e-02  3.4223176994374958e-02  3.5760999966954976e-02  3.3890580267887015e-02  3.5227818994275642e-02  3.3488016917736341e-02  3.4643580972558291e-02  3.3047385612273418e-02  3.3994787048440375e-02  3.2532160325989511e-02  3.3294647732518452e-02  3.1958360328848336e-02  3.2549176378882216e-02  3.1318480302067700e-02  3.1732336330079894e-02  3.0621913882116519e-02  3.0862266132858068e-02  2.9859706443120051e-02  2.9923538588337212e-02  2.9036611258311352e-02  2.8928591762374070e-02  2.8155302421996462e-02  2.7880743299851830e-02  2.7203911533941826e-02  2.6780267816423880e-02  2.6202296228968056e-02  2.5619889113390405e-02  2.5130643748956710e-02  2.4361653055569393e-02  2.3997107107703346e-02  3.4865249327046738e-02  -2.0645216943580977e-01  -2.5738467159701589e-01  -1.8278908086916587e-01  -1.7887130978234034e-01  -1.7914743154813872e-01  -1.7483094672356617e-01  -1.7513457526344070e-01  -1.7079437545290074e-01  -1.7048982262388998e-01  -1.6649576010466333e-01  -1.6596624276939753e-01  -1.6206094857724940e-01  -1.6249899478541047e-01  -1.5811897553891580e-01  -1.5773742543515418e-01  -1.5373293752659892e-01  -1.53