<?xml version="1.0"?>
<VTKFile type="UnstructuredGrid"  version="0.1"  >
<UnstructuredGrid>
<Piece  NumberOfPoints="2886" NumberOfCells="5412">
<Points>
<DataArray  type="Float64"  NumberOfComponents="3"  format="ascii">0 0.1 0  0.98 0.1 0  1 0.1 0  1 0 0  1.5 0 0  3 0 0  3 0.3 0  0 0.3 0  0.01975375321854102 0.1 0  0.03918897458218897 0.1 0  0.05831079002627837 0.1 0  0.07712425666319796 0.1 0  0.0956343475259058 0.1 0  0.1138459546796227 0.1 0  0.1317638870668193 0.1 0  0.1493928840275937 0.1 0  0.1667376092280033 0.1 0  0.1838026357802664 0.1 0  0.2005924801287244 0.1 0  0.2171115811543574 0.1 0  0.2333643037107681 0.1 0  0.2493549444060462 0.1 0  0.2650877293306821 0.1 0  0.2805668058011438 0.1 0  0.2957962848620976 0.1 0  0.3107801766802674 0.1 0  0.3255224447361181 0.1 0  0.3400269848175519 0.1 0  0.3542976327080778 0.1 0  0.3683381609158136 0.1 0  0.3821522744564845 0.1 0  0.3957436316838916 0.1 0  0.4091158196437086 0.1 0  0.4222723742184605 0.1 0  0.4352167733293057 0.1 0  0.4479524348643424 0.1 0  0.4604827295467524 0.1 0  0.4728109659990664 0.1 0  0.4849404035409129 0.1 0  0.4968742471455402 0.1 0  0.508615651843175 0.1 0  0.520167721130924 0.1 0  0.5315335063628542 0.1 0  0.5427160117228604 0.1 0  0.5537181940261912 0.1 0  0.564542961924507 0.1 0  0.575193173270606 0.1 0  0.5856716438765114 0.1 0  0.5959811458006617 0.1 0  0.6061243988680743 0.1 0  0.6161040893285659 0.1 0  0.6259228503970299 0.1 0  0.6355832809287655 0.1 0  0.6450879281079505 0.1 0  0.6544393102991295 0.1 0  0.663639896558931 0.1 0  0.6726921201956305 0.1 0  0.6815983691630338 0.1 0  0.6903610031396646 0.1 0  0.6989823343332418 0.1 0  0.7074646404270378 0.1 0  0.7158101645005117 0.1 0  0.7240211149852543 0.1 0  0.7320996585612525 0.1 0  0.7400479319727645 0.1 0  0.7478680336617921 0.1 0  0.755562036504958 0.1 0  0.7631319665092091 0.1 0  0.7705798279317605 0.1 0  0.777907588066146 0.1 0  0.7851171851013118 0.1 0  0.7922105226004981 0.1 0  0.7991894774550319 0.1 0  0.8060558928136696 0.1 0  0.812811583201334 0.1 0  0.8194583352091183 0.1 0  0.8259979035038147 0.1 0  0.8324320194413813 0.1 0  0.8387623808293405 0.1 0  0.8449906627004957 0.1 0  0.8511185094880469 0.1 0  0.8571475426008311 0.1 0  0.8630793533568246 0.1 0  0.8689155114558531 0.1 0  0.8746575581239063 0.1 0  0.8803070109173519 0.1 0  0.885865363938836 0.1 0  0.8913340851680313 0.1 0  0.8967146206523592 0.1 0  0.9020083930695622 0.1 0  0.9072167995950768 0.1 0  0.9123412183131177 0.1 0  0.9173830029719022 0.1 0  0.9223434865647732 0.1 0  0.9272239785872722 0.1 0  0.9320257720706087 0.1 0  0.9367501330378739 0.1 0  0.9413983102716995 0.1 0  0.9459715351562933 0.1 0  0.9504710127113115 0.1 0  0.9548979346500661 0.1 0  0.9592534708344373 0.1 0  0.9635387708980176 0.1 0  0.9677549682252325 0.1 0  0.971903177251235 0.1 0  0.9759844952956497 0.1 0  0.9840000000000086 0.1 0  0.987999999999974 0.1 0  0.9919999999999393 0.1 0  0.9959999999999913 0.1 0  1 0.09591793123533533 0  1 0.09133596463859224 0  1 0.08619288104391448 0  1 0.08041996484521211 0  1 0.07394008421771697 0  1 0.06666666567302955 0  1 0.05850252932209174 0  1 0.04933859630113544 0  1 0.03905242821848202 0  1 0.02750659386753798 0  1 0.01454683679239736 0  1.015625 0 0  1.03125 0 0  1.046875 0 0  1.0625 0 0  1.078125 0 0  1.09375 0 0  1.109375 0 0  1.125 0 0  1.140625 0 0  1.15625 0 0  1.171875 0 0  1.1875 0 0  1.203125 0 0  1.21875 0 0  1.234375 0 0  1.25 0 0  1.265625 0 0  1.28125 0 0  1.296875 0 0  1.3125 0 0  1.328125 0 0  1.34375 0 0  1.359375 0 0  1.375 0 0  1.390625 0 0  1.40625 0 0  1.421875 0 0  1.4375 0 0  1.453125 0 0  1.46875 0 0  1.484375 0 0  1.515920751924515 0 0  1.531989369316721 0 0  1.54820720925872 0 0  1.564575665560501 0 0  1.581096138674279 0 0  1.597770029901263 0 0  1.614598783332311 0 0  1.631583831055205 0 0  1.64872661129721 0 0  1.666028606716533 0 0  1.683491276608443 0 0  1.701116134125304 0 0  1.718904673324128 0 0  1.736858414799339 0 0  1.754978895814663 0 0  1.773267661782904 0 0  1.791726281103402 0 0  1.810356325314689 0 0  1.8291593848892 0 0  1.848137076690385 0 0  1.867291007717254 0 0  1.886622833871288 0 0  1.90613418642363 0 0  1.925826753299799 0 0  1.945702199101513 0 0  1.96576223584749 0 0  1.986008569283268 0 0  2.006442931928877 0 0  2.02706707547783 0 0  2.047882750887917 0 0  2.06889175187935 0 0  2.090095860038271 0 0  2.111496891648636 0 0  2.133096679109554 0 0  2.154897066851056 0 0  2.176899916687499 0 0  2.199107102752146 0 0  2.22152053937028 0 0  2.244142122958061 0 0  2.266973806444078 0 0  2.290017523268154 0 0  2.313275249499252 0 0  2.336748971745516 0 0  2.360440702338606 0 0  2.384352453384031 0 0  2.408486280477412 0 0  2.432844240041185 0 0  2.457428414757088 0 0  2.482240901796653 0 0  2.507283830121838 0 0  2.532559332080812 0 0  2.558069568787417 0 0  2.583816724966441 0 0  2.60980299606584 0 0  2.636030600971886 0 0  2.662501790984011 0 0  2.689218818279327 0 0  2.716183964547616 0 0  2.743399548861297 0 0  2.77086788244719 0 0  2.798591312896326 0 0  2.826572223178268 0 0  2.854812990138617 0 0  2.883316031690714 0 0  2.912083780657189 0 0  2.941118704633482 0 0  2.970423276998917 0 0  3 0.02999999999994495 0  3 0.05999999999987042 0  3 0.089999999999783 0  3 0.119999999999701 0  3 0.149999999999619 0  3 0.179999999999692 0  3 0.2099999999997737 0  3 0.2399999999998511 0  3 0.2699999999999185 0  2.970138294777171 0.3 0  2.940375666438236 0.3 0  2.910711782853056 0.3 0  2.881146331305122 0.3 0  2.851678975030285 0.3 0  2.822309388626621 0.3 0  2.793037250095074 0.3 0  2.76386223529133 0.3 0  2.734784017903872 0.3 0  2.705802289276642 0.3 0  2.676916713794697 0.3 0  2.648126987654635 0.3 0  2.619432780406184 0.3 0  2.590833779385199 0.3 0  2.562329669847737 0.3 0  2.533920134950189 0.3 0  2.505604855727852 0.3 0  2.477383539822502 0.3 0  2.449255847639465 0.3 0  2.421221492569094 0.3 0  2.393280152486815 0.3 0  2.36543151914496 0.3 0  2.337675285481809 0.3 0  2.310011142385583 0.3 0  2.282438797441587 0.3 0  2.254957931061538 0.3 0  2.227568248063605 0.3 0  2.200269436651085 0.3 0  2.173061204949961 0.3 0  2.145943251515011 0.3 0  2.118915272469994 0.3 0  2.091976978084957 0.3 0  2.065128060700849 0.3 0  2.038368218849433 0.3 0  2.01169717777258 0.3 0  1.985114624111908 0.3 0  1.958620267850966 0.3 0  1.93221382054972 0.3 0  1.905894991850698 0.3 0  1.879663489459713 0.3 0  1.853519019126419 0.3 0  1.827461291053897 0.3 0  1.801490031354372 0.3 0  1.775604937580312 0.3 0  1.74980572560258 0.3 0  1.724092118631866 0.3 0  1.698463829173586 0.3 0  1.672920575782554 0.3 0  1.647462076974085 0.3 0  1.622088043536933 0.3 0  1.5967981978949 0.3 0  1.571592267767068 0.3 0  1.546469970305736 0.3 0  1.521431023814044 0.3 0  1.496475156230927 0.3 0  1.471602093687753 0.3 0  1.446811560490646 0.3 0  1.422103279101731 0.3 0  1.397476971708191 0.3 0  1.37293238939876 0.3 0  1.348469231419202 0.3 0  1.324087248732772 0.3 0  1.299786165921677 0.3 0  1.275565710847046 0.3 0  1.251425617644257 0.3 0  1.227365618676339 0.3 0  1.203385446174014 0.3 0  1.179484853067473 0.3 0  1.155663548773374 0.3 0  1.131921292279077 0.3 0  1.108257802159295 0.3 0  1.084672829009693 0.3 0  1.061166115303374 0.3 0  1.037737392995421 0.3 0  1.01438640299116 0.3 0  0.991112899770314 0.3 0  0.9679166155523955 0.3 0  0.944797284182564 0.3 0  0.921754678526042 0.3 0  0.8987885143602501 0.3 0  0.8758985548820624 0.3 0  0.8530845484099929 0.3 0  0.8303462351786988 0.3 0  0.8076833651172373 0.3 0  0.7850956864865304 0.3 0  0.7625829601354557 0.3 0  0.7401449314598274 0.3 0  0.717781337993959 0.3 0  0.6954919649675473 0.3 0  0.6732765357561226 0.3 0  0.6511348120768439 0.3 0  0.6290665642016573 0.3 0  0.6070715355430467 0.3 0  0.5851494825775325 0.3 0  0.5633001690203812 0.3 0  0.5415233562273221 0.3 0  0.5198187909431873 0.3 0  0.4981862401387795 0.3 0  0.4766254686134248 0.3 0  0.4551362360485234 0.3 0  0.4337182975262159 0.3 0  0.4123714223228037 0.3 0  0.3910953802377493 0.3 0  0.3698899313205595 0.3 0  0.3487548463710963 0.3 0  0.3276898864081783 0.3 0  0.3066948129116018 0.3 0  0.2857694003037476 0.3 0  0.2649134227095047 0.3 0  0.2441266417321288 0.3 0  0.2234088223399122 0.3 0  0.2027597568977288 0.3 0  0.1821792020676698 0.3 0  0.1616669305402443 0.3 0  0.1412227158799362 0.3 0  0.12084633013886 0.3 0  0.1005375673448281 0.3 0  0.08029618164595353 0.3 0  0.06012194778526769 0.3 0  0.04001466495039718 0.3 0  0.01997408913631205 0.3 0  0 0.2800000000000553 0  0 0.2600000000001105 0  0 0.2400000000001658 0  0 0.2200000000002211 0  0 0.2000000000002764 0  0 0.1800000000002244 0  0 0.1600000000001691 0  0 0.140000000000115 0  0 0.1200000000000564 0  1.13346801534201 0.01255848438672509 0  1.003577645172735 0.09351054173913405 0  0.9777559943702486 0.1034978156913738 0  0.9524533750752109 0.1040889939962738 0  0.9296242411226409 0.1041520033606139 0  0.9046110503652111 0.104409422380137 0  0.8777709649694228 0.1053360318797398 0  0.8483859145648608 0.1061007868330701 0  0.8162363822948977 0.1052777104363292 0  0.7893110024210437 0.1060761643971561 0  0.7587949382612539 0.1067265405088633 0  0.7280603867732535 0.1069398153264939 0  0.6947001989413015 0.1075609887579097 0  0.6590363283767549 0.1076715322596598 0  0.6210028614493155 0.1072970410408442 0  1.1953125 0.01353164693413185 0  1.258193991486058 0.01269648635163345 0  1.3201967268638 0.01407907077719561 0  1.383538555392096 0.01434101079053473 0  1.445312500000001 0.01303671693628424 0  1.508925448095738 0.01398525724792267 0  0.9939176689634008 0.1034638089837981 0  1.120967497222226 0.2796788492172345 0  1.572835902117391 0.01424132418857359 0  1.637573277451887 0.01212536916586023 0  1.709730776795181 0.01466855431023635 0  1.005631976950563 0.07074019818158772 0  1.784944696816299 0.01454708406461822 0  0.5805605730631225 0.1101465090472147 0  1.855621181165637 0.01550931272897607 0  0.5366111276616774 0.1096761308243709 0  1.935200147913231 0.01760344159641829 0  1.214922267975168 0.2799787705802257 0  1.31178773425331 0.2792
[...]
<PointData  Scalars="pressure"> 
<DataArray  type="Float64"  Name="pressure"  format="ascii">-7.4762994087611550e-04  -1.1166863652775108e+00  -1.6996517721981211e-03  -5.0439019825725085e-04  9.1087330045121900e-03  0.0000000000000000e+00  0.0000000000000000e+00  -6.6705501295838887e-04  -6.6737140617392967e-03  -1.2505026948309241e-02  -1.8243431308044226e-02  -2.3890530103439094e-02  -2.9448056362583665e-02  -3.4917608913340926e-02  -4.0300539971912935e-02  -4.5598817563357708e-02  -5.0813801809465223e-02  -5.5947049846893443e-02  -6.1000481680166155e-02  -6.5975627874418435e-02  -7.0873854330773117e-02  -7.5697278459584239e-02  -8.0447508025701220e-02  -8.5125454661846442e-02  -8.9734175407956029e-02  -9.4274760633081212e-02  -9.8748994642299553e-02  -1.0315952102820544e-01  -1.0750764811521989e-01  -1.1179447888803302e-01  -1.1602381436831345e-01  -1.2019656106509985e-01  -1.2431618268665255e-01  -1.2838418615284380e-01  -1.3240161710146703e-01  -1.3637229412490903e-01  -1.4029914729835100e-01  -1.4418382044373160e-01  -1.4802905777804656e-01  -1.5183848688019513e-01  -1.5561364420027080e-01  -1.5935895992333113e-01  -1.6307664038100322e-01  -1.6677085668482144e-01  -1.7044475713776250e-01  -1.7409705661409539e-01  -1.7773997503551778e-01  -1.8137194093665956e-01  -1.8499714269190931e-01  -1.8862234208123979e-01  -1.9225105117134883e-01  -1.9588022580770292e-01  -1.9952642803162668e-01  -2.0318746476059910e-01  -2.0686912058843099e-01  -2.1057753043157212e-01  -2.1431745823975432e-01  -2.1809453959803776e-01  -2.2191629202327626e-01  -2.2578768952085215e-01  -2.2971415677072016e-01  -2.3370142988111636e-01  -2.3776359404163894e-01  -2.4189978223117922e-01  -2.4612123248203385e-01  -2.5043065943963599e-01  -2.5485057183951360e-01  -2.5938343406930153e-01  -2.6402672918612352e-01  -2.6880138112311769e-01  -2.7372686034005322e-01  -2.7879598805640959e-01  -2.8403739205265671e-01  -2.8946130026576267e-01  -2.9506949404479604e-01  -3.0088796566190368e-01  -3.0693243728932168e-01  -3.1321963029889610e-01  -3.1978393489483642e-01  -3.2663339008463416e-01  -3.3378091191676140e-01  -3.4124319410422160e-01  -3.4910504231710493e-01  -3.5735855650479598e-01  -3.6603445318191985e-01  -3.7519367140397514e-01  -3.8486864163675100e-01  -3.9511643397035451e-01  -4.0599296033084753e-01  -4.1760556769782592e-01  -4.3001773538922056e-01  -4.4330240119411563e-01  -4.5762768424352301e-01  -4.7313450784966027e-01  -4.9000199734987271e-01  -5.0847159816688425e-01  -5.2883960884990078e-01  -5.5149426584439731e-01  -5.7697266113788059e-01  -6.0602088838014623e-01  -6.3969808080523538e-01  -6.7948361539819246e-01  -7.2830110551191163e-01  -7.9046450694699522e-01  -8.7338654944121374e-01  -1.0165158831851562e+00  -2.3136555105769383e+00  -2.0181690076843366e+00  -1.3855357706664337e+00  -7.9552420667563251e-01  -1.6402532057577746e-01  -6.8152757626033095e-02  -5.0264308279314121e-02  -3.3150889468217135e-02  -2.2474129439675514e-02  -1.5052343083612621e-02  -9.6515868198166262e-03  -5.3274274044707417e-03  -1.9708104726140871e-03  1.2017809929820299e-04  2.8585144074281946e-04  -1.4735945359041333e-03  -1.2079246480146129e-03  1.0499022375169041e-03  5.2615643249811815e-03  1.1410937727036595e-02  1.9289916556576088e-02  2.8566009521699468e-02  3.8755995852825124e-02  4.9075683744665567e-02  5.8820386157643088e-02  6.7404961316156933e-02  7.4357124621906509e-02  7.9445076067926002e-02  8.2561102409520901e-02  8.3710051984020706e-02  8.3071313635934285e-02  8.0876165360146732e-02  7.7381348478556961e-02  7.2913040904816318e-02  6.7707901082896940e-02  6.1954498159967425e-02  5.6049137112051839e-02  4.9983752520781646e-02  4.4057134219637140e-02  3.8348222917148511e-02  3.2948679117655540e-02  2.7900851726730149e-02  2.3268932758705892e-02  1.9062718742023931e-02  1.5309132296577321e-02  1.1995031018086830e-02  6.5907313149986225e-03  4.4582305202121942e-03  2.7067723900482958e-03  1.2918550803501742e-03  2.0341627210405353e-04  -5.4343445204394305e-04  -1.0697833276379770e-03  -1.3263031515551602e-03  -1.3344571300361579e-03  -1.1383740462579555e-03  -7.7561046018856893e-04  -2.5136764973912650e-04  4.1732971569881236e-04  1.2005623291180239e-03  2.0840917696929159e-03  3.0523101621318725e-03  4.0817274718185316e-03  5.1653306533557203e-03  6.2868126236663322e-03  7.4321342757608273e-03  8.5916091361065115e-03  9.7524203575812436e-03  1.0903244730156638e-02  1.2042170710288078e-02  1.3151582205676008e-02  1.4233884919691684e-02  1.5276434036587440e-02  1.6274188617571208e-02  1.7221994780349914e-02  1.8117200387921039e-02  1.8955335565272149e-02  1.9730740317042781e-02  2.0442309761295119e-02  2.1087133330262377e-02  2.1661592169876173e-02  2.2164775845620016e-02  2.2593945905849153e-02  2.2948846828459296e-02  2.3227421767579807e-02  2.3429516613996983e-02  2.3554955675719483e-02  2.3603055648520135e-02  2.3573363466230048e-02  2.3467242368416304e-02  2.3282572520097185e-02  2.3020348372954004e-02  2.2684428937916470e-02  2.2271805588893901e-02  2.1779754986005283e-02  2.1223988116739801e-02  2.0586690417790654e-02  1.9887803027730716e-02  1.9109608124406159e-02  1.8272026131285948e-02  1.7365237284617599e-02  1.6384997553950949e-02  1.5351494771810444e-02  1.4244628243608433e-02  1.3083492559740730e-02  1.1860935735118453e-02  1.0577719977318295e-02  9.2343978224035238e-03  7.8349172158506016e-03  6.3845481388559392e-03  4.8753883946833559e-03  3.3222998757839544e-03  1.7138848321257344e-03  0.0000000000000000e+00  0.0000000000000000e+00  0.0000000000000000e+00  0.0000000000000000e+00  0.0000000000000000e+00  0.0000000000000000e+00  0.0000000000000000e+00  0.0000000000000000e+00  0.0000000000000000e+00  1.8530962606495775e-03  3.6286004628399713e-03  5.3724521844513116e-03  7.0801490839606067e-03  8.7530385149060773e-03  1.0390678558678011e-02  1.1992428120563904e-02  1.3557625734731757e-02  1.5085511594965682e-02  1.6574948798721179e-02  1.8024186489488957e-02  1.9432182702452300e-02  2.0796124318331756e-02  2.2114883933618275e-02  2.3386016845366779e-02  2.4604950961779549e-02  2.5771107041093318e-02  2.6878099013365814e-02  2.7922300049983168e-02  2.8897949594126997e-02  2.9799675404928592e-02  3.0619151498357283e-02  3.1352435838357028e-02  3.1987401453956212e-02  3.2513390331928307e-02  3.2924476253593467e-02  3.3205471791205934e-02  3.3343733442469430e-02  3.3327905124302240e-02  3.3145619330856406e-02  3.2781218491876526e-02  3.2216416285988224e-02  3.1459199692460804e-02  3.0486494923246760e-02  2.9263367493774811e-02  2.7820553973788350e-02  2.6124419359289410e-02  2.4182964785083593e-02  2.1985015284317743e-02  1.9543929990370027e-02  1.6854340443333636e-02  1.3924347572302922e-02  1.0773654365484081e-02  7.4106176743660877e-03  3.8539042802119942e-03  1.2464533289292348e-04  -3.7586999397218506e-03  -7.7710868539486782e-03  -1.1887968899399717e-02  -1.6079718014278464e-02  -2.0325886591217250e-02  -2.4602942095282920e-02  -2.8888061862587504e-02  -3.3164562036341272e-02  -3.7415959499019089e-02  -4.1629184958816304e-02  -4.5798636771286719e-02  -4.9924909917061423e-02  -5.4005046992473778e-02  -5.8049004805728756e-02  -6.2073593167846955e-02  -6.6097862181281442e-02  -7.0150480182658570e-02  -7.4266668622726448e-02  -7.8492214532532981e-02  -8.2880423756839822e-02  -8.7492851085241380e-02  -9.2412732633547198e-02  -9.7716893406507480e-02  -1.0350936088459645e-01  -1.0989886655425894e-01  -1.1698280428068723e-01  -1.2484344486473301e-01  -1.3350552848974795e-01  -1.4282839132807684e-01  -1.5266394002150621e-01  -1.6258219276343261e-01  -1.7216536530746368e-01  -1.8095892785347206e-01  -1.8872902280867254e-01  -1.9487473212282272e-01  -1.9948064081874761e-01  -2.0242187307251475e-01  -2.0412002708671131e-01  -2.0444149374339074e-01  -2.0349178758804917e-01  -2.0162340544273530e-01  -1.9892842887233644e-01  -1.9546651170081314e-01  -1.9144868652902908e-01  -1.8691446128683742e-01  -1.8204488167887900e-01  -1.7686688276999546e-01  -1.7140430201501444e-01  -1.6577874170536316e-01  -1.6000375091023164e-01  -1.5409202503790101e-01  -1.4808198003266634e-01  -1.4200818432867518e-01  -1.3588410714325369e-01  -1.2971609285554567e-01  -1.2352181623356830e-01  -1.1730405214379472e-01  -1.1108149219607578e-01  -1.0485085600303738e-01  -9.8620976464451282e-02  -9.2395630459672695e-02  -8.6176569595733679e-02  -7.9967945811775978e-02  -7.3771046094768644e-02  -6.7586983008491280e-02  -6.1417473451807002e-02  -5.5263556822368672e-02  -4.9125926985345902e-02  -4.3005149553167525e-02  -3.6902161678013051e-02  -3.0816800271910135e-02  -2.4749586483524981e-02  -1.8700884721770838e-02  -1.2670701618979586e-02  -6.6593917337558475e-03  -6.6736659699595090e-04  -6.7071669092756963e-04  -6.7889627784387444e-04  -6.9173474144439877e-04  -7.0732849713804158e-04  -7.2293837346231338e-04  -7.3580375472870720e-04  -7.4403794827918686e-04  -7.4737608782398485e-04  4.3274364519149573e-02  -6.5918784906444899e-02  -1.1398311126024858e+00  -6.2702955200329336e-01  -5.0183175083989018e-01  -4.2530969836025978e-01  -3.7218784182818254e-01  -3.3138198395776275e-01  -2.9854513417700945e-01  -2.7710772045926740e-01  -2.5707005806086292e-01  -2.4004164957679999e-01  -2.2402541474741242e-01  -2.0883265439895468e-01  -1.9413217188647075e-01  7.5379297519442098e-02  8.0681851952676090e-02  6.4022415936215743e-02  4.0627516194368898e-02  2.1184175283146700e-02  7.9346816697167880e-03  -6.7712466007328620e-01  -1.0575687095514960e-01  1.1098692549304599e-03  -1.0153013397066785e-03  3.9822122684095491e-04  -1.8435911086570347e-02  3.9783312359961860e-03  -1.7966233618289135e-01  8.1153343966243827e-03  -1.6479191959487094e-01  1.2758756636587218e-02  -8.5030689298841999e-02  -6.8074767123228574e-02  1.7022994015409972e-02  -5.2051233882609710e-02  -1.4995479875163192e-01  -3.1165875021498035e-02  2.0137446831913170e-02  -1.3440333942881025e-01  1.5456987185854887e-02  2.2433436235188679e-02  -1.0063674840326189e-02  -1.2847416865524175e-01  -1.1856036538435370e-01  2.3517845295722994e-02  1.2050557210742292e-02  -1.0076989934347610e-01  2.0347101825644781e-02  2.3364291081613909e-02  2.6789914412150700e-02  -8.3315340568798843e-02  -1.5582701934127685e-01  2.2039291121078240e-02  3.0770898376463737e-02  -1.8359052798779155e-01  3.2783312352789203e-02  1.9480245113582866e-02  -2.0023625486109947e-01  -6.3012185791419636e-02  -4.8955938602467039e-02  1.7201279906756037e-03  1.6841657094012301e-02  1.3497917472863812e-02  3.3087056810866197e-02  -2.0365688384034461e-01  3.1467007269435396e-02  -7.6383320973112101e-01  -1.9357171622999106e-01  2.9215091143223626e-02  -3.1477755986039746e-02  -1.7941012888749422e-01  9.8706189459283888e-03  2.5119728625565708e-02  -1.6274580514677095e-01  -1.3877161733881063e-01  2.1394038152436887e-02  -1.0795910038404306e-01  1.7253812832332086e-02  -8.9227643291178355e-02  -7.0571622175371079e-02  1.2747444768068628e-02  -3.9059979576320125e-02  1.5743882085515872e-03  -6.2807160091299151e-03  -4.1901397598298924e-03  8.0312855585828961e-03  5.5050040553703793e-03  -2.1274183189334973e-02  -3.6887964624329458e-02  3.4925408065595502e-03  -9.4630249266484875e-02  -2.0002476119959869e-01  -1.5152484505368199e-01  -1.2692695844587920e-01  -2.1015756781230160e-02  -2.3014321385515027e-02  -4.3630564504074348e-02  -5.9991312357066819e-02  -7.6224575231931088e-02  -7.2991671550709625e-02  3.2539215683419269e-02  -9.2298850496452658e-02  -5.8376574773567814e-02  2.7298111714247314e-02  2.0901338438361842e-02  -1.1022679764916431e-01  2.2805319180266806e-02  2.3599954826235239e-02  -1.2610563005066647e-01  2.3127036944023203e-02  2.1428773337930911e-02  1.8513755359431089e-02  1.5037705489171398e-02  3.8780224761269717e-03  -1.4226136268609971e-01  1.0440481088298767e-02  6.0081570864248925e-03  -1.5749862455983143e-01  2.0194799356904516e-03  -6.2428306332254675e-04  -4.5287625863618685e-04  1.2840738524908810e-03  -1.7271886363330149e-01  -1.8634419949938755e-01  -5.9682951128731459e-03  -2.0106233290972161e-01  -2.1634299126373782e-01  -2.3189646922128904e-01  -2.4870526455845079e-01  -2.6685539670213820e-01  -2.8694178254501745e-01  6.2207751548619863e-02  -3.1713214252870875e-01  -3.5406765765479936e-01  -4.0188011997196854e-01  8.1658558359152686e-02  -4.6789489786423705e-01  5.2642445968035412e-02  7.3693060193741472e-02  3.1014653908310052e-02  1.3793613806459611e-02  -5.6797838616330909e-01  -1.6552827847048006e+00  1.6634616049117704e-03  -6.4142967292115235e-03  4.4491462189739173e-03  -4.5223093053052543e-04  -5.7309561547819856e-03  1.3157101765323756e-03  -9.7626918626170772e-03  7.6442866880138054e-04  1.3770048635293193e-03  4.0175624473374133e-03  9.2324710105385211e-04  3.7875998563343992e-03  6.2310394141701874e-04  4.4667972817559638e-03  1.2751624189031830e-03  5.6600682413525411e-03  2.3622379490282198e-03  6.5402854274568692e-03  1.9690868271899256e-03  5.9884924813165940e-03  -1.7572026076318646e-03  2.2351711323860268e-03  -9.2859328357814703e-03  -5.3115429084830742e-03  -2.0569967293790431e-02  -1.6469105133766104e-02  -3.4327849170176922e-02  -2.9077570908669349e-02  -4.1278743209721941e-02  -9.0997299738916088e-03  -2.4751246430441843e-02  -5.4711800901186998e-02  -6.4040172643843707e-02  -6.5585086879963164e-03  -2.1351478246561098e-02  -2.3370975426778634e-03  -1.9793437626251815e-02  5.5089009730069642e-04  -2.0102267401947121e-02  2.1154903767163584e-03  -1.8289126519598319e-02  2.9455698459906264e-03  -2.1823840218622940e-02  8.9310739635512816e-04  -2.0652939997924582e-02  -4.1138754603844990e-04  -2.2526581406231327e-02  -2.8252800680261085e-03  -2.4374411818941732e-02  -5.6764132569554412e-03  -2.6648503411507127e-02  -8.7704730685490076e-03  -2.8185722420930186e-02  -1.1813931111158619e-02  -3.0024603407597040e-02  -1.4724665457165447e-02  -3.1156271916498356e-02  -1.8280412060044819e-02  -3.2136818999791532e-02  -1.8446202864139515e-02  -7.5951976198666143e-02  -8.9595143155523818e-02  -3.3138635024003951e-02  -2.1536476228278600e-02  -3.2782673323126919e-02  -2.2366961564606783e-02  -3.2953367324415991e-02  -2.3191072039302374e-02  -3.2303224904014612e-02  -2.3433624760802334e-02  -3.9425119824894564e-02  -3.1211958133997641e-02  -2.3259197738639773e-02  -3.0806920506643191e-02  -2.2888936594180186e-02  -2.8204610506249977e-02  -2.1754242958133326e-02  -9.6487008438287447e-02  -1.1570631738254804e-01  -4.5018756639316846e-03  -2.6407629326531075e-02  -2.0489428169930764e-02  -2.4222414138189284e-02  -1.8944737961114240e-02  -2.1923675715341998e-02  -1.7174396809414787e-02  -8.3240833020341604e-02  -1.9437320541505050e-02  -1.5182957146851410e-02  -3.9499558826374126e-02  -1.6830570734086885e-02  -1.3039512909154144e-02  -1.4130453697800187e-02  -1.0736788246453150e-02  -1.1323075188798036e-02  -8.3692215843493446e-03  1.0777200736713210e-02  -4.0848515945423457e-02  -8.5089704637403753e-03  -5.8957319958220242e-03  -1.1509183069145781e-01  -1.3444387487467119e-01  -1.0053702357941513e-01  -4.3073581584954411e-02  -5.6610818987274146e-03  -3.3348753814882136e-03  -2.8198873017065132e-03  -7.7120123426070871e-04  6.1166581999418912e-06  1.7018094588972191e-03  -1.5138998398438859e-02  -3.2933652659241038e-03  -1.2417369377985155e-02  -1.4535464233175142e-02  2.7759929297956963e-03  4.1616111515727968e-03  3.1165276879946959e-03  5.2443930296106230e-03  6.5651365432844800e-03  7.3267457900713017e-03  8.8967605656782404e-03  9.4103206206020105e-03  1.1156560081213565e-02  1.1470582012699456e-02  1.3318379615380073e-02  1.3422470609929215e-02  1.5367487130052369e-02  1.5277814220300313e-02  1.7324241202442050e-02  1.7040260264718096e-02  1.9131327746603605e-02  1.8628525735603436e-02  2.0795176066596279e-02  2.0158682311731024e-02  2.2342785036396935e-02  2.1558179134065256e-02  2.3790358757703977e-02  2.2849270056401885e-02  -1.0487795616459563e-02  -4.4110092144744241e-02  2.5065270721468812e-02  2.4002495201113541e-02  2.6147993014583412e-02  2.5031648422229536e-02  2.0306673854771421e-02  8.8968968288250082e-03  2.7116340340019036e-02  2.5924979799984916e-02  1.9708663503996068e-02  -4.0715872750243923e-02  -1.2833694147854763e-01  -1.4841178465503088e-01  -1.6453990097363871e-01  -1.7528984677806164e-01  -2.0105835515759299e-01  -2.0585129255327497e-01  -2.4785188088215712e-01  -2.4052590941053270e-01  -2.8571060510014090e-01  -2.7211360077020397e-01  -3.2583129314676623e-01  -3.0037356580997926e-01  -3.5220926384600815e-01  -3.2128460616076254e-01  -3.6944802678343291e-01  -3.3570480249803331e-01  -3.7707396976332569e-01  -3.4298657044153780e-01  -3.7763295988387757e-01  -3.4461564359143193e-01  -3.7304912418718461e-01  -3.4239138869066765e-01  -3.6568640669876029e-01  -3.3785079686633890e-01  -3.5676061096046924e-01  -3.3195704182256475e-01  -3.4592039115134671e-01  -3.2340802824007625e-01  -3.0786423843474231e-01  -3.0338093197280652e-01  -3.1661849886772303e-01  -2.9853922782064829e-01  -3.1094752491502908e-01  -2.9371342986335225e-01  -3.0325655316255806e-01  -2.8806667199120323e-01  -2.8544763931104222e-01  -2.8532164082120504e-01  -3.1409995947167685e-01  -2.9606912189066648e-01  -2.8236887885039680e-01  -2.7277803581866428e-01  -2.6877936730994362e-01  -2.7669259693115134e-01  -2.6487402847223585e-01  -2.7094607760250089e-01  -2.6043080134191104e-01  -2.6522776696392836e-01  -2.5544636101967383e-01  -2.5596079740138267e-01  -2.3191916971040685e-01  -3.8888223746234940e-01  -2.5963662002575016e-01  -2.5063892840104818e-01  -2.4579702962470323e-01  -2.4167916708837250e-01  -2.4588249361228892e-01  -2.3780429114621682e-01  -2.4099079010885194e-01  -2.3364031267865554e-01  -4.2094426604460788e-01  -2.3317944222601109e-01  -2.3613030611368613e-01  -2.2950198176444878e-01  -4.0748484804869251e-01  -2.3143308886531819e-01  -2.2512371767895725e-01  -2.2312769021241260e-01  -2.1883090516737391e-01  -2.2068284645553451e-01  -2.1474278844247063e-01  -2.1248361373940719e-01  -2.0884679278098484e-01  -2.1062650765611937e-01  -2.0508747478916392e-01  -2.0642432056586615e-01  -2.0112753706359932e-01  -1.9966885156526626e-01  -1.9600745782382348e-01  -1.9704345782326230e-01  -1.9219902916384107e-01  -1.9291535921233008e-01  -1.8827399865399702e-01  -1.7845542754360863e-01  -3.2853680315180955e-01  -3.8140113550595889e-01  -1.8880589216890620e-01  -1.8430380472120411e-01  -1.8368947155542734e-01  -1.7974048647865479e-01  -1.8010636932138099e-01  -1.7572848847276201e-01  -1.7910526761698134e-01  2.7994220323058514e-02  2.6708192548852053e-02  2.8699396278177618e-02  2.7356895524291401e-02  2.9258737171606979e-02  2.7877494482585353e-02  -2.8225066734116672e-01  -3.1901237016742863e-02  -1.8399405532932352e-03  -1.7583261075471190e-01  -1.7165562407212998e-01  -3.0973674676425383e-01  1.3201546238666560e-02  2.0618396357328438e-02  4.1673976364909899e-03  2.9682991598608703e-02  2.8272772444326584e-02  2.6389354066490085e-02  2.6779871987470397e-02  2.8549294851469263e-02  2.7050206044795459e-02  2.8696368244994219e-02  2.7207339717211440e-02  2.8744336505331276e-02  2.7279143119811167e-02  2.8679851465556329e-02  2.7242772997635892e-02  2.8524142724262340e-02  2.7123153818211874e-02  2.8289386371719401e-02  2.6898063533463416e-02  2.7949948479499609e-02  2.6585599171511636e-02  2.7511851636989011e-02  2.6177081735482548e-02  2.6974073331911128e-02  2.5683400930002473e-02  2.6373579427578567e-02  2.5114142922703350e-02  2.5702416933791494e-02  2.4456801451943930e-02  2.4948162306326804e-02  2.3736543197477498e-02  2.4071714269321001e-02  2.2921445354153049e-02  2.3241175898699354e-02  2.2063896286423391e-02  2.4536015545204907e-02  -1.9461855688751234e-01  -2.4902831860096941e-01  -1.7145913727565873e-01  -1.6741184941538714e-01  -1.6753671722480915e-01  -1.6324904827273723e-01  -1.6339751406464917e-01  -1.5910245080676000e-01  -1.5892841607368968e-01  -1.5483708929414441e-01  -1.5441651690355310e-01  -1.5042659717480275e-01  -1.5075661120551936e-01  -1.4640976990326426e-01  -1.4611856654445984e-01  -1.420484684901