<?xml version="1.0"?>
<VTKFile type="UnstructuredGrid"  version="0.1"  >
<UnstructuredGrid>
<Piece  NumberOfPoints="2886" NumberOfCells="5412">
<Points>
<DataArray  type="Float64"  NumberOfComponents="3"  format="ascii">0 0.1 0  0.98 0.1 0  1 0.1 0  1 0 0  1.5 0 0  3 0 0  3 0.3 0  0 0.3 0  0.01975375321854102 0.1 0  0.03918897458218897 0.1 0  0.05831079002627837 0.1 0  0.07712425666319796 0.1 0  0.0956343475259058 0.1 0  0.1138459546796227 0.1 0  0.1317638870668193 0.1 0  0.1493928840275937 0.1 0  0.1667376092280033 0.1 0  0.1838026357802664 0.1 0  0.2005924801287244 0.1 0  0.2171115811543574 0.1 0  0.2333643037107681 0.1 0  0.2493549444060462 0.1 0  0.2650877293306821 0.1 0  0.2805668058011438 0.1 0  0.2957962848620976 0.1 0  0.3107801766802674 0.1 0  0.3255224447361181 0.1 0  0.3400269848175519 0.1 0  0.3542976327080778 0.1 0  0.3683381609158136 0.1 0  0.3821522744564845 0.1 0  0.3957436316838916 0.1 0  0.4091158196437086 0.1 0  0.4222723742184605 0.1 0  0.4352167733293057 0.1 0  0.4479524348643424 0.1 0  0.4604827295467524 0.1 0  0.4728109659990664 0.1 0  0.4849404035409129 0.1 0  0.4968742471455402 0.1 0  0.508615651843175 0.1 0  0.520167721130924 0.1 0  0.5315335063628542 0.1 0  0.5427160117228604 0.1 0  0.5537181940261912 0.1 0  0.564542961924507 0.1 0  0.575193173270606 0.1 0  0.5856716438765114 0.1 0  0.5959811458006617 0.1 0  0.6061243988680743 0.1 0  0.6161040893285659 0.1 0  0.6259228503970299 0.1 0  0.6355832809287655 0.1 0  0.6450879281079505 0.1 0  0.6544393102991295 0.1 0  0.663639896558931 0.1 0  0.6726921201956305 0.1 0  0.6815983691630338 0.1 0  0.6903610031396646 0.1 0  0.6989823343332418 0.1 0  0.7074646404270378 0.1 0  0.7158101645005117 0.1 0  0.7240211149852543 0.1 0  0.7320996585612525 0.1 0  0.7400479319727645 0.1 0  0.7478680336617921 0.1 0  0.755562036504958 0.1 0  0.7631319665092091 0.1 0  0.7705798279317605 0.1 0  0.777907588066146 0.1 0  0.7851171851013118 0.1 0  0.7922105226004981 0.1 0  0.7991894774550319 0.1 0  0.8060558928136696 0.1 0  0.812811583201334 0.1 0  0.8194583352091183 0.1 0  0.8259979035038147 0.1 0  0.8324320194413813 0.1 0  0.8387623808293405 0.1 0  0.8449906627004957 0.1 0  0.8511185094880469 0.1 0  0.8571475426008311 0.1 0  0.8630793533568246 0.1 0  0.8689155114558531 0.1 0  0.8746575581239063 0.1 0  0.8803070109173519 0.1 0  0.885865363938836 0.1 0  0.8913340851680313 0.1 0  0.8967146206523592 0.1 0  0.9020083930695622 0.1 0  0.9072167995950768 0.1 0  0.9123412183131177 0.1 0  0.9173830029719022 0.1 0  0.9223434865647732 0.1 0  0.9272239785872722 0.1 0  0.9320257720706087 0.1 0  0.9367501330378739 0.1 0  0.9413983102716995 0.1 0  0.9459715351562933 0.1 0  0.9504710127113115 0.1 0  0.9548979346500661 0.1 0  0.9592534708344373 0.1 0  0.9635387708980176 0.1 0  0.9677549682252325 0.1 0  0.971903177251235 0.1 0  0.9759844952956497 0.1 0  0.9840000000000086 0.1 0  0.987999999999974 0.1 0  0.9919999999999393 0.1 0  0.9959999999999913 0.1 0  1 0.09591793123533533 0  1 0.09133596463859224 0  1 0.08619288104391448 0  1 0.08041996484521211 0  1 0.07394008421771697 0  1 0.06666666567302955 0  1 0.05850252932209174 0  1 0.04933859630113544 0  1 0.03905242821848202 0  1 0.02750659386753798 0  1 0.01454683679239736 0  1.015625 0 0  1.03125 0 0  1.046875 0 0  1.0625 0 0  1.078125 0 0  1.09375 0 0  1.109375 0 0  1.125 0 0  1.140625 0 0  1.15625 0 0  1.171875 0 0  1.1875 0 0  1.203125 0 0  1.21875 0 0  1.234375 0 0  1.25 0 0  1.265625 0 0  1.28125 0 0  1.296875 0 0  1.3125 0 0  1.328125 0 0  1.34375 0 0  1.359375 0 0  1.375 0 0  1.390625 0 0  1.40625 0 0  1.421875 0 0  1.4375 0 0  1.453125 0 0  1.46875 0 0  1.484375 0 0  1.515920751924515 0 0  1.531989369316721 0 0  1.54820720925872 0 0  1.564575665560501 0 0  1.581096138674279 0 0  1.597770029901263 0 0  1.614598783332311 0 0  1.631583831055205 0 0  1.64872661129721 0 0  1.666028606716533 0 0  1.683491276608443 0 0  1.701116134125304 0 0  1.718904673324128 0 0  1.736858414799339 0 0  1.754978895814663 0 0  1.773267661782904 0 0  1.791726281103402 0 0  1.810356325314689 0 0  1.8291593848892 0 0  1.848137076690385 0 0  1.867291007717254 0 0  1.886622833871288 0 0  1.90613418642363 0 0  1.925826753299799 0 0  1.945702199101513 0 0  1.96576223584749 0 0  1.986008569283268 0 0  2.006442931928877 0 0  2.02706707547783 0 0  2.047882750887917 0 0  2.06889175187935 0 0  2.090095860038271 0 0  2.111496891648636 0 0  2.133096679109554 0 0  2.154897066851056 0 0  2.176899916687499 0 0  2.199107102752146 0 0  2.22152053937028 0 0  2.244142122958061 0 0  2.266973806444078 0 0  2.290017523268154 0 0  2.313275249499252 0 0  2.336748971745516 0 0  2.360440702338606 0 0  2.384352453384031 0 0  2.408486280477412 0 0  2.432844240041185 0 0  2.457428414757088 0 0  2.482240901796653 0 0  2.507283830121838 0 0  2.532559332080812 0 0  2.558069568787417 0 0  2.583816724966441 0 0  2.60980299606584 0 0  2.636030600971886 0 0  2.662501790984011 0 0  2.689218818279327 0 0  2.716183964547616 0 0  2.743399548861297 0 0  2.77086788244719 0 0  2.798591312896326 0 0  2.826572223178268 0 0  2.854812990138617 0 0  2.883316031690714 0 0  2.912083780657189 0 0  2.941118704633482 0 0  2.970423276998917 0 0  3 0.02999999999994495 0  3 0.05999999999987042 0  3 0.089999999999783 0  3 0.119999999999701 0  3 0.149999999999619 0  3 0.179999999999692 0  3 0.2099999999997737 0  3 0.2399999999998511 0  3 0.2699999999999185 0  2.970138294777171 0.3 0  2.940375666438236 0.3 0  2.910711782853056 0.3 0  2.881146331305122 0.3 0  2.851678975030285 0.3 0  2.822309388626621 0.3 0  2.793037250095074 0.3 0  2.76386223529133 0.3 0  2.734784017903872 0.3 0  2.705802289276642 0.3 0  2.676916713794697 0.3 0  2.648126987654635 0.3 0  2.619432780406184 0.3 0  2.590833779385199 0.3 0  2.562329669847737 0.3 0  2.533920134950189 0.3 0  2.505604855727852 0.3 0  2.477383539822502 0.3 0  2.449255847639465 0.3 0  2.421221492569094 0.3 0  2.393280152486815 0.3 0  2.36543151914496 0.3 0  2.337675285481809 0.3 0  2.310011142385583 0.3 0  2.282438797441587 0.3 0  2.254957931061538 0.3 0  2.227568248063605 0.3 0  2.200269436651085 0.3 0  2.173061204949961 0.3 0  2.145943251515011 0.3 0  2.118915272469994 0.3 0  2.091976978084957 0.3 0  2.065128060700849 0.3 0  2.038368218849433 0.3 0  2.01169717777258 0.3 0  1.985114624111908 0.3 0  1.958620267850966 0.3 0  1.93221382054972 0.3 0  1.905894991850698 0.3 0  1.879663489459713 0.3 0  1.853519019126419 0.3 0  1.827461291053897 0.3 0  1.801490031354372 0.3 0  1.775604937580312 0.3 0  1.74980572560258 0.3 0  1.724092118631866 0.3 0  1.698463829173586 0.3 0  1.672920575782554 0.3 0  1.647462076974085 0.3 0  1.622088043536933 0.3 0  1.5967981978949 0.3 0  1.571592267767068 0.3 0  1.546469970305736 0.3 0  1.521431023814044 0.3 0  1.496475156230927 0.3 0  1.471602093687753 0.3 0  1.446811560490646 0.3 0  1.422103279101731 0.3 0  1.397476971708191 0.3 0  1.37293238939876 0.3 0  1.348469231419202 0.3 0  1.324087248732772 0.3 0  1.299786165921677 0.3 0  1.275565710847046 0.3 0  1.251425617644257 0.3 0  1.227365618676339 0.3 0  1.203385446174014 0.3 0  1.179484853067473 0.3 0  1.155663548773374 0.3 0  1.131921292279077 0.3 0  1.108257802159295 0.3 0  1.084672829009693 0.3 0  1.061166115303374 0.3 0  1.037737392995421 0.3 0  1.01438640299116 0.3 0  0.991112899770314 0.3 0  0.9679166155523955 0.3 0  0.944797284182564 0.3 0  0.921754678526042 0.3 0  0.8987885143602501 0.3 0  0.8758985548820624 0.3 0  0.8530845484099929 0.3 0  0.8303462351786988 0.3 0  0.8076833651172373 0.3 0  0.7850956864865304 0.3 0  0.7625829601354557 0.3 0  0.7401449314598274 0.3 0  0.717781337993959 0.3 0  0.6954919649675473 0.3 0  0.6732765357561226 0.3 0  0.6511348120768439 0.3 0  0.6290665642016573 0.3 0  0.6070715355430467 0.3 0  0.5851494825775325 0.3 0  0.5633001690203812 0.3 0  0.5415233562273221 0.3 0  0.5198187909431873 0.3 0  0.4981862401387795 0.3 0  0.4766254686134248 0.3 0  0.4551362360485234 0.3 0  0.4337182975262159 0.3 0  0.4123714223228037 0.3 0  0.3910953802377493 0.3 0  0.3698899313205595 0.3 0  0.3487548463710963 0.3 0  0.3276898864081783 0.3 0  0.3066948129116018 0.3 0  0.2857694003037476 0.3 0  0.2649134227095047 0.3 0  0.2441266417321288 0.3 0  0.2234088223399122 0.3 0  0.2027597568977288 0.3 0  0.1821792020676698 0.3 0  0.1616669305402443 0.3 0  0.1412227158799362 0.3 0  0.12084633013886 0.3 0  0.1005375673448281 0.3 0  0.08029618164595353 0.3 0  0.06012194778526769 0.3 0  0.04001466495039718 0.3 0  0.01997408913631205 0.3 0  0 0.2800000000000553 0  0 0.2600000000001105 0  0 0.2400000000001658 0  0 0.2200000000002211 0  0 0.2000000000002764 0  0 0.1800000000002244 0  0 0.1600000000001691 0  0 0.140000000000115 0  0 0.1200000000000564 0  1.13346801534201 0.01255848438672509 0  1.003577645172735 0.09351054173913405 0  0.9777559943702486 0.1034978156913738 0  0.9524533750752109 0.1040889939962738 0  0.9296242411226409 0.1041520033606139 0  0.9046110503652111 0.104409422380137 0  0.8777709649694228 0.1053360318797398 0  0.8483859145648608 0.1061007868330701 0  0.8162363822948977 0.1052777104363292 0  0.7893110024210437 0.1060761643971561 0  0.7587949382612539 0.1067265405088633 0  0.7280603867732535 0.1069398153264939 0  0.6947001989413015 0.1075609887579097 0  0.6590363283767549 0.1076715322596598 0  0.6210028614493155 0.1072970410408442 0  1.1953125 0.01353164693413185 0  1.258193991486058 0.01269648635163345 0  1.3201967268638 0.01407907077719561 0  1.383538555392096 0.01434101079053473 0  1.445312500000001 0.01303671693628424 0  1.508925448095738 0.01398525724792267 0  0.9939176689634008 0.1034638089837981 0  1.120967497222226 0.2796788492172345 0  1.572835902117391 0.01424132418857359 0  1.637573277451887 0.01212536916586023 0  1.709730776795181 0.01466855431023635 0  1.005631976950563 0.07074019818158772 0  1.784944696816299 0.01454708406461822 0  0.5805605730631225 0.1101465090472147 0  1.855621181165637 0.01550931272897607 0  0.5366111276616774 0.1096761308243709 0  1.935200147913231 0.01760344159641829 0  1.214922267975168 0.2799787705802257 0  1.31178773425331 0.2792
[...]
<PointData  Scalars="pressure"> 
<DataArray  type="Float64"  Name="pressure"  format="ascii">-1.4168675766847629e-02  -5.3041822863258226e-01  -9.3658963592028174e-02  -7.0094787169445713e-02  -1.1958566403490032e-02  0.0000000000000000e+00  0.0000000000000000e+00  -1.4129500879717514e-02  -2.0094784354383454e-02  -2.5925731870380293e-02  -3.1663220952357088e-02  -3.7308822016486248e-02  -4.2864147256067860e-02  -4.8330748347827142e-02  -5.3710016462850792e-02  -5.9003668320501544e-02  -6.4213087153459095e-02  -6.9339736343196096e-02  -7.4385304507312455e-02  -7.9351214787460017e-02  -8.4238812161699844e-02  -8.9049850558974783e-02  -9.3785801445665160e-02  -9.8447695316555922e-02  -1.0303780053113495e-01  -1.0755725669785619e-01  -1.1200759302635305e-01  -1.1639080211558450e-01  -1.2070817755468621e-01  -1.2496073894837360e-01  -1.2915120553191795e-01  -1.3328052654413253e-01  -1.3735113080932462e-01  -1.4136447091421894e-01  -1.4532137765641184e-01  -1.4922464195658891e-01  -1.5307631355685614e-01  -1.5687777301797026e-01  -1.6063101566286281e-01  -1.6433851665657989e-01  -1.6800165106714682e-01  -1.7162326714946671e-01  -1.7520499839587900e-01  -1.7874972255081564e-01  -1.8225979409144791e-01  -1.8573431132185417e-01  -1.8918099626694199e-01  -1.9259964090512022e-01  -1.9599207022314885e-01  -1.9936337078711200e-01  -2.0271583224366824e-01  -2.0604698738030736e-01  -2.0936773680095053e-01  -2.1267667203753368e-01  -2.1597723975333161e-01  -2.1927312476422678e-01  -2.2256746154698090e-01  -2.2586342889208702e-01  -2.2916533559438912e-01  -2.3247634756349242e-01  -2.3579945920631631e-01  -2.3913774076261551e-01  -2.4249922323760723e-01  -2.4588327077026148e-01  -2.4929596137319321e-01  -2.5273915500474015e-01  -2.5622329867866861e-01  -2.5975160904556610e-01  -2.6332101551903231e-01  -2.6694246353057249e-01  -2.7062601462381503e-01  -2.7436735131322676e-01  -2.7817985421831065e-01  -2.8206955527665850e-01  -2.8603546547635744e-01  -2.9008987274194109e-01  -2.9423953553558729e-01  -2.9849164945734591e-01  -3.0286261421194571e-01  -3.0735227085759809e-01  -3.1196855435147286e-01  -3.1671361810034571e-01  -3.2162857378819310e-01  -3.2670623112118585e-01  -3.3195732470765366e-01  -3.3740777930771282e-01  -3.4306864636964218e-01  -3.4896099923894608e-01  -3.5510646160479536e-01  -3.6154685649057666e-01  -3.6830322163212992e-01  -3.7540158127633816e-01  -3.8290502731702608e-01  -3.9086357844246211e-01  -3.9934105464527075e-01  -4.0842324897273830e-01  -4.1821275786599693e-01  -4.2884489178948026e-01  -4.4050210357080499e-01  -4.5343529253600751e-01  -4.6799878982127607e-01  -4.8464975516772729e-01  -5.0435904554736855e-01  -5.2853327461865141e-01  -5.5623329971843538e-01  -6.2295918934224248e-01  -1.1039907254509509e+00  -1.1104196791112950e+00  -8.6308560301620851e-01  -6.5624744425429515e-01  -1.2286900149506302e-01  -1.0034378364430170e-01  -9.1902370020314053e-02  -8.4746081464789250e-02  -7.9921400506384188e-02  -7.6380840000634276e-02  -7.3754870300048125e-02  -7.1729155821776802e-02  -7.0315071933067977e-02  -6.9597639470515865e-02  -6.9713965765551403e-02  -7.0567080450484654e-02  -7.0589263915879386e-02  -6.9744334824902277e-02  -6.8215054020930546e-02  -6.6141917564453867e-02  -6.3649062886698859e-02  -6.0807649345686027e-02  -5.7684169088868080e-02  -5.4392558046239152e-02  -5.1020321547705305e-02  -4.7635461915212160e-02  -4.4301725652195208e-02  -4.1069429958674609e-02  -3.7981599191482522e-02  -3.5066115081603476e-02  -3.2342155670461240e-02  -2.9823031371072374e-02  -2.7514669245313778e-02  -2.5412701523452791e-02  -2.3517095579520270e-02  -2.1824160747539189e-02  -2.0300105454851627e-02  -1.8962211056445261e-02  -1.7772126923490287e-02  -1.6728418895070436e-02  -1.5790779990367296e-02  -1.4983258552871531e-02  -1.4258014533341854e-02  -1.3607865913394440e-02  -1.3018550815546535e-02  -1.2473580537465315e-02  -1.1451138294356403e-02  -1.0931958600455219e-02  -1.0403445866522362e-02  -9.8428539657285947e-03  -9.2249201407615007e-03  -8.5792856541671136e-03  -7.8531087974052071e-03  -7.0427065726458311e-03  -6.1533497545731728e-03  -5.1956020368928444e-03  -4.1407805788844752e-03  -3.0020018939568714e-03  -1.7863430633535131e-03  -4.9864683288883369e-04  8.5136927235322411e-04  2.2490138530703737e-03  3.6818856552178853e-03  5.1349006883430175e-03  6.5881257745576760e-03  8.0331061170740049e-03  9.4500553089348176e-03  1.0828910662470485e-02  1.2161011306197235e-02  1.3437943276036287e-02  1.4657751780009214e-02  1.5815608344298956e-02  1.6921567740203751e-02  1.7967608221023522e-02  1.8961832459235432e-02  1.9904152403130475e-02  2.0797177808246078e-02  2.1638111979108473e-02  2.2423946259660064e-02  2.3143425695859907e-02  2.3782943753292218e-02  2.4326345398126639e-02  2.4754046977058037e-02  2.5044053514362629e-02  2.5176669025797505e-02  2.5132775683687159e-02  2.4896759634982519e-02  2.4458539103827521e-02  2.3813443631188352e-02  2.2966682368638199e-02  2.1924666928634866e-02  2.0704985278764299e-02  1.9344543019321241e-02  1.7869302480512765e-02  1.6298317830580854e-02  1.4732343883505606e-02  1.3156042490192336e-02  1.1691485452494262e-02  1.0325089565285864e-02  9.1454949908338599e-03  8.1799997735434882e-03  7.4252396014551809e-03  6.8903119736224809e-03  6.5503126139591240e-03  6.3384595366548762e-03  6.2017532889308471e-03  6.0536920889330409e-03  5.8399235467820106e-03  5.4567743658595885e-03  4.8837176891604710e-03  4.0303315941931797e-03  2.9550321908685144e-03  1.6060386164055173e-03  0.0000000000000000e+00  0.0000000000000000e+00  0.0000000000000000e+00  0.0000000000000000e+00  0.0000000000000000e+00  0.0000000000000000e+00  0.0000000000000000e+00  0.0000000000000000e+00  0.0000000000000000e+00  1.0207448696760507e-03  2.1283089966805890e-03  3.4131711934660071e-03  4.8702696832852287e-03  6.4941654496576406e-03  8.2340035446260233e-03  1.0025280155651134e-02  1.1785915835461652e-02  1.3421738545262175e-02  1.4841174525218293e-02  1.5957367303586271e-02  1.6705035486777813e-02  1.7041125548175204e-02  1.6957059435654856e-02  1.6482758972863842e-02  1.5675924996865334e-02  1.4633774108131891e-02  1.3466249463799245e-02  1.2293231250606145e-02  1.1225609647452263e-02  1.0350363949165850e-02  9.7245423053594279e-03  9.3662416013292459e-03  9.2569784239760165e-03  9.3694958596593006e-03  9.6279008946922214e-03  9.9827061910353204e-03  1.0362078888609180e-02  1.0717583110942992e-02  1.1014278186979701e-02  1.1222788297983243e-02  1.1336803479681563e-02  1.1372652546239939e-02  1.1295022279328848e-02  1.1139217134528253e-02  1.0929621211867349e-02  1.0662204792104911e-02  1.0343649065639136e-02  9.9757721159874878e-03  9.5991125426511861e-03  9.1445773275184040e-03  8.6604239197098955e-03  8.1028778917579414e-03  7.4491075946308567e-03  6.6636539992627952e-03  5.7288738764431531e-03  4.5742297984190765e-03  3.1456638610810562e-03  1.4307210988075180e-03  -6.4404195170345913e-04  -3.1311483442280669e-03  -6.0717734656681619e-03  -9.5067158189670944e-03  -1.3470143125714965e-02  -1.7985696577839501e-02  -2.3068632971815363e-02  -2.8709835114351302e-02  -3.4936097168674483e-02  -4.1678454807797263e-02  -4.8942529415891015e-02  -5.6701051947254118e-02  -6.4880727266483307e-02  -7.3488164131618169e-02  -8.2442900104193473e-02  -9.1720445339934814e-02  -1.0128941997588019e-01  -1.1111304211019428e-01  -1.2115846004644769e-01  -1.3140792853671363e-01  -1.4182391509561657e-01  -1.5242367188163211e-01  -1.6309593559935576e-01  -1.7370568971329164e-01  -1.8429049016900820e-01  -1.9443605234764957e-01  -2.0390940369002045e-01  -2.1245312875711736e-01  -2.1971481678509311e-01  -2.2560458749642714e-01  -2.3004826898350458e-01  -2.3271704913787392e-01  -2.3396071001218613e-01  -2.3379932240528009e-01  -2.3265681159085683e-01  -2.3048720983143112e-01  -2.2741061180051897e-01  -2.2371898233713242e-01  -2.1947536915442517e-01  -2.1474220760744892e-01  -2.0966419784627083e-01  -2.0427019197506804e-01  -1.9867996731334606e-01  -1.9290964317464632e-01  -1.8697654101442579e-01  -1.8095621050478677e-01  -1.7485586884090937e-01  -1.6868440633557480e-01  -1.6246463289230234e-01  -1.5621772674705106e-01  -1.4995076367695898e-01  -1.4366800773041785e-01  -1.3737955324870166e-01  -1.3108726573698395e-01  -1.2480150030425224e-01  -1.1852065269692913e-01  -1.1224952174425906e-01  -1.0599035742377878e-01  -9.9744034794573888e-02  -9.3512910882344730e-02  -8.7297606072050657e-02  -8.1098754151455441e-02  -7.4917271752907827e-02  -6.8753686402656236e-02  -6.2608360330020665e-02  -5.6481566837959477e-02  -5.0373779029078213e-02  -4.4284880742476371e-02  -3.8215128970195793e-02  -3.2164679024257577e-02  -2.6133512791308336e-02  -2.0121779009006784e-02  -1.4129655075417561e-02  -1.4131293720597174e-02  -1.4135275978022496e-02  -1.4141513058645252e-02  -1.4149081617517876e-02  -1.4156657947134357e-02  -1.4162908059975004e-02  -1.4166916963000691e-02  -1.4168549975231143e-02  -5.5947611310525620e-02  -9.8273830290967576e-02  -6.5751315963217094e-01  -4.6285296384272923e-01  -4.0514884767300596e-01  -3.6566738777084351e-01  -3.3552078894822429e-01  -3.1031653948334165e-01  -2.8837384533614502e-01  -2.7304001919531323e-01  -2.5788067457107372e-01  -2.4430267638805941e-01  -2.3091709429573870e-01  -2.1768249534808004e-01  -2.0441468469601826e-01  -4.2897162804830989e-02  -3.1250949024238181e-02  -2.2905117341946758e-02  -1.7377030459224372e-02  -1.4048353038925229e-02  -1.1761625015675532e-02  -4.9078456205081583e-01  -1.4607781744897286e-01  -9.6222195920879546e-03  -6.8177833611721556e-03  -2.5456228943961743e-03  -7.8164818421500928e-02  2.9984679946358376e-03  -1.9096427320526332e-01  8.4043843806778287e-03  -1.7683406651970360e-01  1.3802609551400840e-02  -1.0618123937013686e-01  -6.9246641509734669e-02  1.8447041365070378e-02  -3.8483685533345906e-02  -1.6249430075242519e-01  -1.1527097823467228e-02  2.1773263774445460e-02  -1.4728122349736142e-01  -6.4597123810852572e-02  2.4353519430644427e-02  2.3715031474198216e-03  -1.7881983244704563e-01  -1.3165655084333999e-01  2.4929763733482095e-02  8.5069150053849914e-03  -1.1401323664631652e-01  9.8767502886640043e-03  2.2429925436110450e-02  1.0911962185148198e-02  -9.6642059787999182e-02  -2.0707351005640154e-01  1.7273389934095055e-02  1.1404545421433357e-02  -2.2710180351070353e-01  1.1165971859984258e-02  1.1051418768517151e-02  -2.3355668481718067e-01  -7.6392259605419718e-02  -6.2356581699919152e-02  6.2913182983803453e-03  7.7426916707212601e-03  6.3200812806758324e-03  1.0189466198394359e-02  -2.2890524753218142e-01  9.2129042335114784e-03  -5.1911854319582840e-01  -2.1248043642720760e-01  1.0566508521075567e-02  -4.4892432928795654e-02  -1.9579640274022633e-01  5.8749906473940161e-03  1.4916392902551012e-02  -1.7777664019390468e-01  -1.5291506565248467e-01  1.6909856926215085e-02  -1.2165789907210291e-01  1.5413478959467611e-02  -1.0281019106186340e-01  -8.4091708860347364e-02  1.0940181271573165e-02  -5.2533714432614335e-02  9.6232409736901343e-04  -1.9726183560401463e-02  -7.1439696190027158e-02  5.7932498023341439e-03  4.3834258563587762e-03  -3.4738908694621130e-02  -8.6405551996349542e-02  -6.8664295385846078e-02  -1.2585803089373268e-01  -2.2144181335152249e-01  -1.6604200287125187e-01  -1.4084488051117605e-01  -3.4434604092836836e-02  -4.8646490389718227e-03  -2.5753072600300894e-02  -5.2781837261095685e-02  -8.6960683300265976e-02  -8.6349991810258667e-02  9.4825766680418123e-03  -1.0558828700087457e-01  -7.1872390329788427e-02  1.2623929127382125e-02  1.4067345285821700e-02  -1.2340183478904647e-01  1.9951123234881917e-02  2.4115668163539106e-02  -1.3911017828697203e-01  2.4968315800961906e-02  2.3239366329950037e-02  2.0033845817204021e-02  1.6305897817341271e-02  -1.0754081971911644e-02  -1.5498704740095298e-01  1.1187211775924586e-02  5.6803156912328436e-03  -1.6980915010783518e-01  1.5149587932382724e-04  -4.7832102186153511e-03  -8.2746679545935356e-03  1.2517403521256425e-03  -1.8440249880813731e-01  -1.9721851976339111e-01  -1.9398281985359252e-02  -2.1071659251915872e-01  -2.2428810370569249e-01  -2.3756892644019928e-01  -2.5128738427995945e-01  -2.6538721944799626e-01  -2.8017727797547370e-01  -4.9265338996474714e-02  -3.0100317832418683e-01  -3.2459319728142177e-01  -3.5269404597517057e-01  -3.6753659274852357e-02  -3.8812758784050966e-01  -1.9874183905856706e-02  -2.6485224242899591e-02  -1.5661265894442500e-02  -1.2847056288710679e-02  -4.3650272489899350e-01  -9.3571230395922522e-01  7.3818659002621023e-04  -1.9872882361145705e-02  2.6611415537217591e-03  -7.0146298519147873e-02  -1.9152723053872764e-02  1.3098756652062766e-03  -2.3225345511220498e-02  -6.9701511134647218e-02  -6.9258178492746694e-02  -6.8195277965915790e-02  -6.9198844412153335e-02  -6.8072849174807562e-02  -6.9273486363677431e-02  -6.7804593270235219e-02  -6.9139057206780763e-02  -6.7419459820925134e-02  -6.8626412706700529e-02  -6.6805468455897826e-02  -6.7818615669766269e-02  -6.5848113970358862e-02  -6.7218717926251073e-02  -6.5158274715096165e-02  -6.7874862613674550e-02  -6.5700478093857512e-02  -7.0718243079835513e-02  -6.8488005568837190e-02  -7.6571852017392986e-02  -7.3283372369967834e-02  -8.0272110043135128e-02  -6.4691749640944138e-02  -7.0053315639281563e-02  -8.8382874306435891e-02  -9.3696582469745229e-02  -6.2340437313058709e-02  -6.6914567897464805e-02  -5.8999333336919361e-02  -6.4027381811338310e-02  -5.5764145748344575e-02  -6.1493490148985169e-02  -5.2625691370717605e-02  -5.7821807102894786e-02  -4.9329102147482651e-02  -5.5683223108015253e-02  -4.6532958113737699e-02  -5.1615648262881848e-02  -4.3471487407567094e-02  -4.8516858944303271e-02  -4.0554048634482739e-02  -4.5458040599584797e-02  -3.7799379998209988e-02  -4.2525694975041078e-02  -3.5174748946676840e-02  -3.9519118878901249e-02  -3.2675226238131592e-02  -3.6758810747619095e-02  -3.0344427613523222e-02  -3.3985515815931330e-02  -2.8433433056035670e-02  -3.1336407131058862e-02  -2.5759538837856592e-02  -1.0347148823385524e-01  -1.1210953115392215e-01  -2.9038481313630810e-02  -2.4155296239757557e-02  -2.6424839107942678e-02  -2.2358843956794799e-02  -2.4275280438266180e-02  -2.0642403555458308e-02  -2.2057510015902487e-02  -1.9018104815244165e-02  -7.6566093926484419e-02  -1.9937666923143204e-02  -1.7451924997531721e-02  -1.7944767726214964e-02  -1.5949575350361542e-02  -1.5842786537731222e-02  -1.4468244419197550e-02  -1.2102787648229228e-01  -1.3408523543763082e-01  -6.9017859602073822e-02  -1.3934338587033966e-02  -1.3017648108002175e-02  -1.2044615879475588e-02  -1.1581621089524513e-02  -1.0240472667491092e-02  -1.0157867970589554e-02  -1.0512294251505261e-01  -8.4602519455037675e-03  -8.7070326192577423e-03  -6.9240059087657541e-02  -6.7232626093595782e-03  -7.2468355583789994e-03  -5.0526029832295427e-03  -5.7557658484379158e-03  -3.4395346833254524e-03  -4.2659720651636911e-03  -6.3549848777555137e-02  -5.8364508560140256e-02  -1.8473261207143218e-03  -2.7455624030392951e-03  -1.3993936462142367e-01  -1.5449151144759157e-01  -1.2844757970515375e-01  -4.7584798908287679e-02  -3.3482495341039778e-04  -1.2307136562961553e-03  1.1761032537898641e-03  2.9280227426768494e-04  2.5806293249273468e-03  1.7794365838840049e-03  -1.3401128983113684e-02  -3.3449127863830752e-03  -1.0080939444883573e-02  -1.6717138359643773e-02  3.9063413279073278e-03  3.2180338232210767e-03  1.3034909093096098e-03  2.8308946112008955e-03  4.5843420649359480e-03  4.3103033755747264e-03  5.8678291980552664e-03  5.7645187791089880e-03  7.0925406328153006e-03  7.1766013411826909e-03  8.2328358461182805e-03  8.4730381904994032e-03  9.2816589435964630e-03  9.6735998989773263e-03  1.0235516661042946e-02  1.0777921003795959e-02  1.1103171476801732e-02  1.1773016897565325e-02  1.1865047589253204e-02  1.2685807402144623e-02  1.2557616734327457e-02  1.3479393762589727e-02  1.3105933104282794e-02  1.4184061558924160e-02  -2.0685015106316377e-02  -3.8071345608768369e-02  1.3584268866645476e-02  1.4772284828911518e-02  1.3991147216106264e-02  1.5281317667145635e-02  -5.0035919143328736e-02  -2.9707035256869210e-02  1.4287969364880531e-02  1.5688939977882798e-02  -3.7458464687366244e-02  -2.8580811106498249e-02  -1.5707662677340553e-01  -1.7311949710503646e-01  -1.7542789511479465e-01  -1.9351134112353313e-01  -2.0338759348831345e-01  -2.1648004777722549e-01  -2.3624083522612946e-01  -2.4194025411678918e-01  -2.6599906676136870e-01  -2.6571461565244864e-01  -2.9483514173731645e-01  -2.8670150622153340e-01  -3.1629859516084696e-01  -3.0267408655137368e-01  -3.3042001443320629e-01  -3.1377591378809627e-01  -3.3761990715669848e-01  -3.1980829790501353e-01  -3.3966272044655815e-01  -3.2182098328789349e-01  -3.3795390816902693e-01  -3.2100486290873076e-01  -3.3406428434806756e-01  -3.1839610901980470e-01  -3.2885402696807076e-01  -3.1467631670315388e-01  -3.2219576734946959e-01  -3.0915577988039616e-01  -3.0068316813142903e-01  -2.9732088549161323e-01  -3.0443267008052805e-01  -2.9357974646519391e-01  -3.0018218686814196e-01  -2.8972352187711836e-01  -2.9464288886055251e-01  -2.8530652526249095e-01  -2.8466387358862782e-01  -2.8733384620919838e-01  -3.0497868776185072e-01  -2.8933853383894437e-01  -2.8075211733300448e-01  -2.7575466904691992e-01  -2.7215381653559634e-01  -2.7613598611826939e-01  -2.6851647997014677e-01  -2.7142021715505815e-01  -2.6453132916386507e-01  -2.6669514315069864e-01  -2.6020702892882230e-01  -2.6367450818620702e-01  -2.1600142066058328e-01  -3.3225374839989513e-01  -2.6204397044014377e-01  -2.5593070036149856e-01  -2.5372534769679844e-01  -2.4981198883178368e-01  -2.5165523858172528e-01  -2.4602170610389426e-01  -2.4727129465351780e-01  -2.4205712265060744e-01  -3.6032174166537312e-01  -2.4383157888668497e-01  -2.4290757613809985e-01  -2.3810519942209188e-01  -3.5661219848842801e-01  -2.3867866987851921e-01  -2.3399654930817132e-01  -2.3351903351395742e-01  -2.2930205049048544e-01  -2.2979984702766160e-01  -2.2523731603839928e-01  -2.2450820729417273e-01  -2.2068180366437490e-01  -2.2116329013223818e-01  -2.1679177471248881e-01  -2.1703523486622617e-01  -2.1275009537323855e-01  -2.1245738707653622e-01  -2.0857354286151505e-01  -2.0862967080885916e-01  -2.0460901401742901e-01  -2.0451650848376454e-01  -2.0059143118354780e-01  -2.0413396681167936e-01  -3.1072556422053110e-01  -3.4270224113552439e-01  -2.0044796397289955e-01  -1.9656524298775555e-01  -1.9667436288130777e-01  -1.9258533896036489e-01  -1.9234989382223264e-01  -1.8846582861090533e-01  -1.9268472159540900e-01  1.4424663456951438e-02  1.5962086425977719e-02  1.4453492276228910e-02  1.6142272433991779e-02  1.4385420685067821e-02  1.6198722659664933e-02  -2.7877122908957652e-01  -1.5256399612631144e-02  -7.0461088595229801e-02  -1.8808000933933852e-01  -1.8433202496229159e-01  -2.9780503594632829e-01  9.0036928603198802e-03  1.4542668938518223e-02  1.2884436715803439e-03  1.4195255534036780e-02  1.6144019494270186e-02  1.8348994273514555e-02  1.8444923960743136e-02  1.5973538089518000e-02  1.8440635004457539e-02  1.5735856050727717e-02  1.8335840929906172e-02  1.5402204305026042e-02  1.8096857450597813e-02  1.5041899220621109e-02  1.7784729185580366e-02  1.4635807526104157e-02  1.7365797657906898e-02  1.4220714380978668e-02  1.6924018319487345e-02  1.3889066452148083e-02  1.6466110151698608e-02  1.3689153370252390e-02  1.6044274735137035e-02  1.3622629771033182e-02  1.5625475808506897e-02  1.3618382735679023e-02  1.5262620095596232e-02  1.3710064709862385e-02  1.4892764517720241e-02  1.3933021553945733e-02  1.4590412396975311e-02  1.4196446079106605e-02  1.4263261115416766e-02  1.4456669566445823e-02  1.3965545353791764e-02  1.7372530099345116e-02  -2.0835002779252490e-01  -2.5289766947451092e-01  -1.8373234141248831e-01  -1.8005721516819939e-01  -1.8061770561691295e-01  -1.7624657590676099e-01  -1.7684219614120583e-01  -1.7241670160397840e-01  -1.7186654444729613e-01  -1.6805522745628429e-01  -1.6732069460310500e-01  -1.6357441709725035e-01  -1.64215899799676