<?xml version="1.0"?>
<VTKFile type="UnstructuredGrid"  version="0.1"  >
<UnstructuredGrid>
<Piece  NumberOfPoints="2886" NumberOfCells="5412">
<Points>
<DataArray  type="Float64"  NumberOfComponents="3"  format="ascii">0 0.1 0  0.98 0.1 0  1 0.1 0  1 0 0  1.5 0 0  3 0 0  3 0.3 0  0 0.3 0  0.01975375321854102 0.1 0  0.03918897458218897 0.1 0  0.05831079002627837 0.1 0  0.07712425666319796 0.1 0  0.0956343475259058 0.1 0  0.1138459546796227 0.1 0  0.1317638870668193 0.1 0  0.1493928840275937 0.1 0  0.1667376092280033 0.1 0  0.1838026357802664 0.1 0  0.2005924801287244 0.1 0  0.2171115811543574 0.1 0  0.2333643037107681 0.1 0  0.2493549444060462 0.1 0  0.2650877293306821 0.1 0  0.2805668058011438 0.1 0  0.2957962848620976 0.1 0  0.3107801766802674 0.1 0  0.3255224447361181 0.1 0  0.3400269848175519 0.1 0  0.3542976327080778 0.1 0  0.3683381609158136 0.1 0  0.3821522744564845 0.1 0  0.3957436316838916 0.1 0  0.4091158196437086 0.1 0  0.4222723742184605 0.1 0  0.4352167733293057 0.1 0  0.4479524348643424 0.1 0  0.4604827295467524 0.1 0  0.4728109659990664 0.1 0  0.4849404035409129 0.1 0  0.4968742471455402 0.1 0  0.508615651843175 0.1 0  0.520167721130924 0.1 0  0.5315335063628542 0.1 0  0.5427160117228604 0.1 0  0.5537181940261912 0.1 0  0.564542961924507 0.1 0  0.575193173270606 0.1 0  0.5856716438765114 0.1 0  0.5959811458006617 0.1 0  0.6061243988680743 0.1 0  0.6161040893285659 0.1 0  0.6259228503970299 0.1 0  0.6355832809287655 0.1 0  0.6450879281079505 0.1 0  0.6544393102991295 0.1 0  0.663639896558931 0.1 0  0.6726921201956305 0.1 0  0.6815983691630338 0.1 0  0.6903610031396646 0.1 0  0.6989823343332418 0.1 0  0.7074646404270378 0.1 0  0.7158101645005117 0.1 0  0.7240211149852543 0.1 0  0.7320996585612525 0.1 0  0.7400479319727645 0.1 0  0.7478680336617921 0.1 0  0.755562036504958 0.1 0  0.7631319665092091 0.1 0  0.7705798279317605 0.1 0  0.777907588066146 0.1 0  0.7851171851013118 0.1 0  0.7922105226004981 0.1 0  0.7991894774550319 0.1 0  0.8060558928136696 0.1 0  0.812811583201334 0.1 0  0.8194583352091183 0.1 0  0.8259979035038147 0.1 0  0.8324320194413813 0.1 0  0.8387623808293405 0.1 0  0.8449906627004957 0.1 0  0.8511185094880469 0.1 0  0.8571475426008311 0.1 0  0.8630793533568246 0.1 0  0.8689155114558531 0.1 0  0.8746575581239063 0.1 0  0.8803070109173519 0.1 0  0.885865363938836 0.1 0  0.8913340851680313 0.1 0  0.8967146206523592 0.1 0  0.9020083930695622 0.1 0  0.9072167995950768 0.1 0  0.9123412183131177 0.1 0  0.9173830029719022 0.1 0  0.9223434865647732 0.1 0  0.9272239785872722 0.1 0  0.9320257720706087 0.1 0  0.9367501330378739 0.1 0  0.9413983102716995 0.1 0  0.9459715351562933 0.1 0  0.9504710127113115 0.1 0  0.9548979346500661 0.1 0  0.9592534708344373 0.1 0  0.9635387708980176 0.1 0  0.9677549682252325 0.1 0  0.971903177251235 0.1 0  0.9759844952956497 0.1 0  0.9840000000000086 0.1 0  0.987999999999974 0.1 0  0.9919999999999393 0.1 0  0.9959999999999913 0.1 0  1 0.09591793123533533 0  1 0.09133596463859224 0  1 0.08619288104391448 0  1 0.08041996484521211 0  1 0.07394008421771697 0  1 0.06666666567302955 0  1 0.05850252932209174 0  1 0.04933859630113544 0  1 0.03905242821848202 0  1 0.02750659386753798 0  1 0.01454683679239736 0  1.015625 0 0  1.03125 0 0  1.046875 0 0  1.0625 0 0  1.078125 0 0  1.09375 0 0  1.109375 0 0  1.125 0 0  1.140625 0 0  1.15625 0 0  1.171875 0 0  1.1875 0 0  1.203125 0 0  1.21875 0 0  1.234375 0 0  1.25 0 0  1.265625 0 0  1.28125 0 0  1.296875 0 0  1.3125 0 0  1.328125 0 0  1.34375 0 0  1.359375 0 0  1.375 0 0  1.390625 0 0  1.40625 0 0  1.421875 0 0  1.4375 0 0  1.453125 0 0  1.46875 0 0  1.484375 0 0  1.515920751924515 0 0  1.531989369316721 0 0  1.54820720925872 0 0  1.564575665560501 0 0  1.581096138674279 0 0  1.597770029901263 0 0  1.614598783332311 0 0  1.631583831055205 0 0  1.64872661129721 0 0  1.666028606716533 0 0  1.683491276608443 0 0  1.701116134125304 0 0  1.718904673324128 0 0  1.736858414799339 0 0  1.754978895814663 0 0  1.773267661782904 0 0  1.791726281103402 0 0  1.810356325314689 0 0  1.8291593848892 0 0  1.848137076690385 0 0  1.867291007717254 0 0  1.886622833871288 0 0  1.90613418642363 0 0  1.925826753299799 0 0  1.945702199101513 0 0  1.96576223584749 0 0  1.986008569283268 0 0  2.006442931928877 0 0  2.02706707547783 0 0  2.047882750887917 0 0  2.06889175187935 0 0  2.090095860038271 0 0  2.111496891648636 0 0  2.133096679109554 0 0  2.154897066851056 0 0  2.176899916687499 0 0  2.199107102752146 0 0  2.22152053937028 0 0  2.244142122958061 0 0  2.266973806444078 0 0  2.290017523268154 0 0  2.313275249499252 0 0  2.336748971745516 0 0  2.360440702338606 0 0  2.384352453384031 0 0  2.408486280477412 0 0  2.432844240041185 0 0  2.457428414757088 0 0  2.482240901796653 0 0  2.507283830121838 0 0  2.532559332080812 0 0  2.558069568787417 0 0  2.583816724966441 0 0  2.60980299606584 0 0  2.636030600971886 0 0  2.662501790984011 0 0  2.689218818279327 0 0  2.716183964547616 0 0  2.743399548861297 0 0  2.77086788244719 0 0  2.798591312896326 0 0  2.826572223178268 0 0  2.854812990138617 0 0  2.883316031690714 0 0  2.912083780657189 0 0  2.941118704633482 0 0  2.970423276998917 0 0  3 0.02999999999994495 0  3 0.05999999999987042 0  3 0.089999999999783 0  3 0.119999999999701 0  3 0.149999999999619 0  3 0.179999999999692 0  3 0.2099999999997737 0  3 0.2399999999998511 0  3 0.2699999999999185 0  2.970138294777171 0.3 0  2.940375666438236 0.3 0  2.910711782853056 0.3 0  2.881146331305122 0.3 0  2.851678975030285 0.3 0  2.822309388626621 0.3 0  2.793037250095074 0.3 0  2.76386223529133 0.3 0  2.734784017903872 0.3 0  2.705802289276642 0.3 0  2.676916713794697 0.3 0  2.648126987654635 0.3 0  2.619432780406184 0.3 0  2.590833779385199 0.3 0  2.562329669847737 0.3 0  2.533920134950189 0.3 0  2.505604855727852 0.3 0  2.477383539822502 0.3 0  2.449255847639465 0.3 0  2.421221492569094 0.3 0  2.393280152486815 0.3 0  2.36543151914496 0.3 0  2.337675285481809 0.3 0  2.310011142385583 0.3 0  2.282438797441587 0.3 0  2.254957931061538 0.3 0  2.227568248063605 0.3 0  2.200269436651085 0.3 0  2.173061204949961 0.3 0  2.145943251515011 0.3 0  2.118915272469994 0.3 0  2.091976978084957 0.3 0  2.065128060700849 0.3 0  2.038368218849433 0.3 0  2.01169717777258 0.3 0  1.985114624111908 0.3 0  1.958620267850966 0.3 0  1.93221382054972 0.3 0  1.905894991850698 0.3 0  1.879663489459713 0.3 0  1.853519019126419 0.3 0  1.827461291053897 0.3 0  1.801490031354372 0.3 0  1.775604937580312 0.3 0  1.74980572560258 0.3 0  1.724092118631866 0.3 0  1.698463829173586 0.3 0  1.672920575782554 0.3 0  1.647462076974085 0.3 0  1.622088043536933 0.3 0  1.5967981978949 0.3 0  1.571592267767068 0.3 0  1.546469970305736 0.3 0  1.521431023814044 0.3 0  1.496475156230927 0.3 0  1.471602093687753 0.3 0  1.446811560490646 0.3 0  1.422103279101731 0.3 0  1.397476971708191 0.3 0  1.37293238939876 0.3 0  1.348469231419202 0.3 0  1.324087248732772 0.3 0  1.299786165921677 0.3 0  1.275565710847046 0.3 0  1.251425617644257 0.3 0  1.227365618676339 0.3 0  1.203385446174014 0.3 0  1.179484853067473 0.3 0  1.155663548773374 0.3 0  1.131921292279077 0.3 0  1.108257802159295 0.3 0  1.084672829009693 0.3 0  1.061166115303374 0.3 0  1.037737392995421 0.3 0  1.01438640299116 0.3 0  0.991112899770314 0.3 0  0.9679166155523955 0.3 0  0.944797284182564 0.3 0  0.921754678526042 0.3 0  0.8987885143602501 0.3 0  0.8758985548820624 0.3 0  0.8530845484099929 0.3 0  0.8303462351786988 0.3 0  0.8076833651172373 0.3 0  0.7850956864865304 0.3 0  0.7625829601354557 0.3 0  0.7401449314598274 0.3 0  0.717781337993959 0.3 0  0.6954919649675473 0.3 0  0.6732765357561226 0.3 0  0.6511348120768439 0.3 0  0.6290665642016573 0.3 0  0.6070715355430467 0.3 0  0.5851494825775325 0.3 0  0.5633001690203812 0.3 0  0.5415233562273221 0.3 0  0.5198187909431873 0.3 0  0.4981862401387795 0.3 0  0.4766254686134248 0.3 0  0.4551362360485234 0.3 0  0.4337182975262159 0.3 0  0.4123714223228037 0.3 0  0.3910953802377493 0.3 0  0.3698899313205595 0.3 0  0.3487548463710963 0.3 0  0.3276898864081783 0.3 0  0.3066948129116018 0.3 0  0.2857694003037476 0.3 0  0.2649134227095047 0.3 0  0.2441266417321288 0.3 0  0.2234088223399122 0.3 0  0.2027597568977288 0.3 0  0.1821792020676698 0.3 0  0.1616669305402443 0.3 0  0.1412227158799362 0.3 0  0.12084633013886 0.3 0  0.1005375673448281 0.3 0  0.08029618164595353 0.3 0  0.06012194778526769 0.3 0  0.04001466495039718 0.3 0  0.01997408913631205 0.3 0  0 0.2800000000000553 0  0 0.2600000000001105 0  0 0.2400000000001658 0  0 0.2200000000002211 0  0 0.2000000000002764 0  0 0.1800000000002244 0  0 0.1600000000001691 0  0 0.140000000000115 0  0 0.1200000000000564 0  1.13346801534201 0.01255848438672509 0  1.003577645172735 0.09351054173913405 0  0.9777559943702486 0.1034978156913738 0  0.9524533750752109 0.1040889939962738 0  0.9296242411226409 0.1041520033606139 0  0.9046110503652111 0.104409422380137 0  0.8777709649694228 0.1053360318797398 0  0.8483859145648608 0.1061007868330701 0  0.8162363822948977 0.1052777104363292 0  0.7893110024210437 0.1060761643971561 0  0.7587949382612539 0.1067265405088633 0  0.7280603867732535 0.1069398153264939 0  0.6947001989413015 0.1075609887579097 0  0.6590363283767549 0.1076715322596598 0  0.6210028614493155 0.1072970410408442 0  1.1953125 0.01353164693413185 0  1.258193991486058 0.01269648635163345 0  1.3201967268638 0.01407907077719561 0  1.383538555392096 0.01434101079053473 0  1.445312500000001 0.01303671693628424 0  1.508925448095738 0.01398525724792267 0  0.9939176689634008 0.1034638089837981 0  1.120967497222226 0.2796788492172345 0  1.572835902117391 0.01424132418857359 0  1.637573277451887 0.01212536916586023 0  1.709730776795181 0.01466855431023635 0  1.005631976950563 0.07074019818158772 0  1.784944696816299 0.01454708406461822 0  0.5805605730631225 0.1101465090472147 0  1.855621181165637 0.01550931272897607 0  0.5366111276616774 0.1096761308243709 0  1.935200147913231 0.01760344159641829 0  1.214922267975168 0.2799787705802257 0  1.31178773425331 0.2792
[...]
<PointData  Scalars="pressure"> 
<DataArray  type="Float64"  Name="pressure"  format="ascii">-9.4547369051002439e-01  -1.5573662528494694e+00  -1.1208185602382557e+00  -1.0112647884811299e+00  -6.6036645842541941e-01  0.0000000000000000e+00  0.0000000000000000e+00  -9.4542782976229234e-01  -9.5139979295343091e-01  -9.5723078470098943e-01  -9.6296838655021921e-01  -9.6861416280797252e-01  -9.7416974145021495e-01  -9.7963666366178803e-01  -9.8501632298918385e-01  -9.9031045135032414e-01  -9.9552042811388564e-01  -1.0006477316157507e+00  -1.0056940371607486e+00  -1.0106607926381426e+00  -1.0155493380679605e+00  -1.0203614312078624e+00  -1.0250985344041881e+00  -1.0297617029787838e+00  -1.0343532002435691e+00  -1.0388741671029820e+00  -1.0433261276387504e+00  -1.0477110881425298e+00  -1.0520302996991953e+00  -1.0562848761489347e+00  -1.0604774521839391e+00  -1.0646090270236799e+00  -1.0686820369944832e+00  -1.0726978455901488e+00  -1.0766574773047968e+00  -1.0805635779087499e+00  -1.0844182785254191e+00  -1.0882229816774220e+00  -1.0919797056673559e+00  -1.0956909672518995e+00  -1.0993581682085012e+00  -1.1029842567127484e+00  -1.1065709154106165e+00  -1.1101211246171636e+00  -1.1136373069187397e+00  -1.1171187183196412e+00  -1.1205731850425404e+00  -1.1240008019773200e+00  -1.1274032483235510e+00  -1.1307863185842764e+00  -1.1341524880288909e+00  -1.1374988956384886e+00  -1.1408377229476356e+00  -1.1441674819293073e+00  -1.1474921145956021e+00  -1.1508155857199966e+00  -1.1541419864791698e+00  -1.1574748096757999e+00  -1.1608188897692402e+00  -1.1641785863810599e+00  -1.1675573857805164e+00  -1.1709590599126236e+00  -1.1743930472861697e+00  -1.1778592070531015e+00  -1.1813649383504463e+00  -1.1849144233425017e+00  -1.1885156723232748e+00  -1.1921796904345690e+00  -1.1958997651793071e+00  -1.1996895147625213e+00  -1.2035622085101512e+00  -1.2075144763733943e+00  -1.2115599369137928e+00  -1.2157128309284084e+00  -1.2199684870036338e+00  -1.2243438812904581e+00  -1.2288478636097806e+00  -1.2334913908692655e+00  -1.2382991297435446e+00  -1.2432639474991019e+00  -1.2484138835047029e+00  -1.2537276424861665e+00  -1.2592811769925503e+00  -1.2650606870260197e+00  -1.2710773585636286e+00  -1.2773721091763464e+00  -1.2839575019929899e+00  -1.2908664631673656e+00  -1.2981194170841273e+00  -1.3057883785270832e+00  -1.3138951228346452e+00  -1.3224752356828060e+00  -1.3316192617609275e+00  -1.3413922907985185e+00  -1.3518861285476040e+00  -1.3632138918856989e+00  -1.3755155711385902e+00  -1.3889744086847005e+00  -1.4038347253034502e+00  -1.4204347623591493e+00  -1.4392640934194583e+00  -1.4609028161833837e+00  -1.4866586341498966e+00  -1.5183796785305914e+00  -1.5558397779073250e+00  -1.6381299328325927e+00  -2.2531893234720664e+00  -2.2922320297260930e+00  -2.0398654970405494e+00  -1.8894899636024489e+00  -1.0326874708142062e+00  -1.0557864188622650e+00  -1.0504348289909735e+00  -1.0465024782103400e+00  -1.0412198539856696e+00  -1.0347820442372893e+00  -1.0278703930966633e+00  -1.0210807466013232e+00  -1.0151968781803624e+00  -1.0109650620794945e+00  -1.0097569781162354e+00  -1.0130754035237790e+00  -1.0113320449516754e+00  -1.0054174599662720e+00  -9.9520275511408318e-01  -9.8112009234829045e-01  -9.6430957892849334e-01  -9.4621907837629005e-01  -9.2804917269702858e-01  -9.1092471464705671e-01  -8.9544146178021566e-01  -8.8178372871833144e-01  -8.6983469941462765e-01  -8.5923545856712213e-01  -8.4952209315183203e-01  -8.4020232750179757e-01  -8.3081639371649285e-01  -8.2100820257473706e-01  -8.1052053693908366e-01  -7.9925270224645761e-01  -7.8728002710296563e-01  -7.7463898377181561e-01  -7.6181154045246602e-01  -7.4880204997462552e-01  -7.3606879251438850e-01  -7.2364504693565779e-01  -7.1206048331828908e-01  -7.0106290592461029e-01  -6.9109230622092765e-01  -6.8199976770290527e-01  -6.7386101563868028e-01  -6.6666410099912121e-01  -6.5485612047109398e-01  -6.5015768464944101e-01  -6.4622780959610882e-01  -6.4299275759519936e-01  -6.4035295671515724e-01  -6.3813715011254468e-01  -6.3607596183842197e-01  -6.3370769575039732e-01  -6.3062920128537614e-01  -6.2643783246971008e-01  -6.2057943185893649e-01  -6.1252678336259703e-01  -6.0199378643077139e-01  -5.8895079571627118e-01  -5.7356808709499141e-01  -5.5622027886845049e-01  -5.3763977985103639e-01  -5.1868598988528980e-01  -4.9975533614945900e-01  -4.8236346786804363e-01  -4.6641703568727144e-01  -4.5269125502091234e-01  -4.4134961282396307e-01  -4.3223576747641668e-01  -4.2516543719365291e-01  -4.1967721159427002e-01  -4.1582630131470033e-01  -4.1255812206844567e-01  -4.0982487241535887e-01  -4.0711996490407010e-01  -4.0423941468377406e-01  -4.0102508080958843e-01  -3.9726246190783521e-01  -3.9277992369316789e-01  -3.8741315602389470e-01  -3.8113824190891404e-01  -3.7385487669187428e-01  -3.6557473760214021e-01  -3.5626447616714546e-01  -3.4598324727710800e-01  -3.3484088511419513e-01  -3.2296158301659472e-01  -3.1050149201372851e-01  -2.9768340874386356e-01  -2.8461065268506219e-01  -2.7145883015266131e-01  -2.5850511727122299e-01  -2.4569359155361573e-01  -2.3292424970928446e-01  -2.2074958693114524e-01  -2.0849115169713486e-01  -1.9676771383965555e-01  -1.8478529319777504e-01  -1.7326285048929493e-01  -1.6159074958221634e-01  -1.4966199567858854e-01  -1.3797753431414023e-01  -1.2576628371892035e-01  -1.1370069839149241e-01  -1.0149578759087720e-01  -8.9062124713620336e-02  -7.6429849796726540e-02  -6.3726823592634943e-02  -5.0882740876579506e-02  -3.8343094659966867e-02  -2.5726745211054888e-02  -1.2898512584620664e-02  0.0000000000000000e+00  0.0000000000000000e+00  0.0000000000000000e+00  0.0000000000000000e+00  0.0000000000000000e+00  0.0000000000000000e+00  0.0000000000000000e+00  0.0000000000000000e+00  0.0000000000000000e+00  -1.2650301056603554e-02  -2.4689041324134534e-02  -3.7299298106821720e-02  -4.9744506042991146e-02  -6.2109004782189690e-02  -7.4494234175786170e-02  -8.6934167688497863e-02  -9.9467749594516638e-02  -1.1207966424807146e-01  -1.2479817911531035e-01  -1.3759918478353261e-01  -1.5047734905071267e-01  -1.6337537268212493e-01  -1.7622944039143515e-01  -1.8898075132947192e-01  -2.0159757529578420e-01  -2.1404352570807342e-01  -2.2630416890138907e-01  -2.3843450700748409e-01  -2.5055703867876866e-01  -2.6284380401280311e-01  -2.7550959002286196e-01  -2.8881765884083227e-01  -3.0299713921285321e-01  -3.1832648254991686e-01  -3.3480616273169050e-01  -3.5254131012634393e-01  -3.7122368710052311e-01  -3.9048555982461908e-01  -4.0972902448711485e-01  -4.2820250077808919e-01  -4.4519604860855261e-01  -4.6026167938205570e-01  -4.7270883913414646e-01  -4.8245272352476509e-01  -4.9017848722954160e-01  -4.9532115747797428e-01  -4.9925296996591106e-01  -5.0228527466515382e-01  -5.0518811610264913e-01  -5.0833453112740912e-01  -5.1219376431612396e-01  -5.1700260469228021e-01  -5.2293498636953484e-01  -5.3011182284889247e-01  -5.3872904421509071e-01  -5.4885152862562059e-01  -5.6070399193427234e-01  -5.7471555197888324e-01  -5.9091336093099356e-01  -6.0942660415890904e-01  -6.3016193280197907e-01  -6.5266129686222552e-01  -6.7634486573614305e-01  -7.0044804418857554e-01  -7.2406921156517179e-01  -7.4654981213743365e-01  -7.6787668435637568e-01  -7.8760286429590709e-01  -8.0620486043667394e-01  -8.2432675056838123e-01  -8.4247619408603736e-01  -8.6123518358550466e-01  -8.8077370918218156e-01  -9.0107949330863446e-01  -9.2191515378381583e-01  -9.4280995911382282e-01  -9.6333530822847946e-01  -9.8325458356771944e-01  -1.0024125435460818e+00  -1.0210293968306223e+00  -1.0392411982161418e+00  -1.0571123024093598e+00  -1.0749553821011137e+00  -1.0920943431606842e+00  -1.1081031850977543e+00  -1.1225734690478264e+00  -1.1348974722442648e+00  -1.1450040252429943e+00  -1.1527552046172540e+00  -1.1578300797081467e+00  -1.1608993191683497e+00  -1.1620458938476723e+00  -1.1618587016332982e+00  -1.1603438076037340e+00  -1.1577116043379716e+00  -1.1543302959154096e+00  -1.1502926564004814e+00  -1.1456980675671140e+00  -1.1407137668979759e+00  -1.1353837868969352e+00  -1.1298372369403240e+00  -1.1240965570730026e+00  -1.1181853408525775e+00  -1.1121801948896137e+00  -1.1060912221697745e+00  -1.0999286502935033e+00  -1.0937166064429531e+00  -1.0874757141900357e+00  -1.0812141204862302e+00  -1.0749360250515136e+00  -1.0686517804388200e+00  -1.0623630724073778e+00  -1.0560806435804984e+00  -1.0498026635176678e+00  -1.0435341559119280e+00  -1.0372772531373213e+00  -1.0310329344782967e+00  -1.0248035310944523e+00  -1.0185897442016758e+00  -1.0123921783082972e+00  -1.0062117809641922e+00  -1.0000491125993052e+00  -9.9390453943649648e-01  -9.8777835652992840e-01  -9.8167106758897438e-01  -9.7558255800509019e-01  -9.6951309191299084e-01  -9.6346284702257556e-01  -9.5743180005064088e-01  -9.5142011879864130e-01  -9.4542800721820341e-01  -9.4542991376786423e-01  -9.4543456899280376e-01  -9.4544187631537946e-01  -9.4545075224762565e-01  -9.4545963734397198e-01  -9.4546695995708796e-01  -9.4547164623986057e-01  -9.4547354594406552e-01  -9.1893267934994372e-01  -1.0540281546441410e+00  -1.6811750456495262e+00  -1.4316547438532896e+00  -1.3587886194553038e+00  -1.3105709090662789e+00  -1.2750982672803863e+00  -1.2465133071788792e+00  -1.2224704162260545e+00  -1.2060983712927174e+00  -1.1902297225202996e+00  -1.1762367826679074e+00  -1.1625955771798515e+00  -1.1492120542898012e+00  -1.1358600746846899e+00  -8.6439840205958574e-01  -8.2607282593889464e-01  -7.8200912490340257e-01  -7.3010073858052371e-01  -6.8689934298094490e-01  -6.5721983528933237e-01  -1.5562607831604134e+00  -1.0101531883696220e+00  -6.4114280806108059e-01  -6.3216780973865538e-01  -6.0798990169645772e-01  -1.0400041048001301e+00  -5.4587028711085361e-01  -1.1223625808830895e+00  -4.7717122909771237e-01  -1.1082038318068674e+00  -4.2898972003966507e-01  -9.3251055186909693e-01  -8.5150347727455733e-01  -4.1031171230408425e-01  -7.7824372862564217e-01  -1.0938459900504900e+00  -6.6514773093979240e-01  -3.9878527601729202e-01  -1.0786197042489627e+00  -9.7259343913445484e-01  -3.7714865700151062e-01  -5.6737750986356850e-01  -1.0662068898187718e+00  -1.0629848435734468e+00  -3.4033147305935413e-01  -5.1392976674835367e-01  -1.0453330222282826e+00  -5.0314949953524990e-01  -2.9048644744474267e-01  -4.9204651380130121e-01  -1.0279559092278554e+00  -1.1143987793821111e+00  -2.3993884881672906e-01  -4.6629554973884801e-01  -1.1482939922628423e+00  -4.1797341468606924e-01  -1.9077662851171057e-01  -1.1612985484305527e+00  -1.0077015423047939e+00  -9.9366386641653626e-01  -5.3398756145140314e-01  -1.5557940245676646e-01  -1.1842140135621027e-01  -3.6139011151367484e-01  -1.1590266365818427e+00  -2.9495895867208488e-01  -1.5043157264433893e+00  -1.1434849042199295e+00  -2.5670747654583215e-01  -9.7619822404227607e-01  -1.1269681755749315e+00  -8.2684297360661532e-02  -2.0826845965018295e-01  -1.1090045350163220e+00  -1.0841743409182951e+00  -1.7002197346850209e-01  -1.0529376675806137e+00  -1.3134330971515706e-01  -1.0340976680714193e+00  -1.0153842309615426e+00  -9.3344169646652375e-02  -9.8383072058971643e-01  -1.1603028746354285e-02  -9.5102724816589279e-01  -1.0199925974898498e+00  -5.7006782818768219e-02  -4.4018644735641058e-02  -9.6603694234295978e-01  -1.0490209050775525e+00  -1.0008857878386215e+00  -9.7286769804946316e-01  -1.1521799205698751e+00  -1.0972876769017113e+00  -1.0721134691556693e+00  -9.6573990458164316e-01  -6.2186684153444438e-01  -7.3536513794929459e-01  -8.1484568190088036e-01  -8.9047514697271268e-01  -1.0176612126787805e+00  -3.2665687068046295e-01  -1.0369049438293219e+00  -1.0031671595968707e+00  -2.3258015645591790e-01  -2.1482510943300689e-01  -1.0547258365624987e+00  -2.6358582788162832e-01  -3.1670460291172059e-01  -1.0704430822299742e+00  -3.6072322530216633e-01  -3.8972785334451376e-01  -4.0554063319556916e-01  -4.1717169556238515e-01  -6.4791872169611708e-01  -1.0863317160341042e+00  -4.4867808622317545e-01  -5.1059603149791943e-01  -1.1011692401416022e+00  -5.8097305499996466e-01  -6.2352594453847643e-01  -6.3633200982083638e-01  -9.9145004866839966e-03  -1.1157856756018452e+00  -1.1286352833706748e+00  -9.5070186919945032e-01  -1.1421959703751168e+00  -1.1558816853682745e+00  -1.1693585947768985e+00  -1.1834121160393816e+00  -1.1980523310636060e+00  -1.2136741254991095e+00  -8.8768759750991222e-01  -1.2362202575777983e+00  -1.2625916427236832e+00  -1.2951479402193282e+00  -8.4493704017685001e-01  -1.3377998348073354e+00  -7.5660626854170132e-01  -8.0445866171721470e-01  -7.0874029022442842e-01  -6.7042573460480359e-01  -1.3981687631717332e+00  -2.0213983853912305e+00  -1.1559088654959969e-02  -9.5117181809899953e-01  -3.0915364379136803e-02  -1.0109444896002200e+00  -9.5045762864140770e-01  -1.0084296575212629e-02  -9.5452364567069636e-01  -1.0077722867626659e+00  -1.0073149207609577e+00  -1.0003815583824376e+00  -1.0097389030779462e+00  -1.0018719562639486e+00  -1.0138804180875907e+00  -1.0022695138963849e+00  -1.0183756933416810e+00  -1.0026141715741432e+00  -1.0221168175289055e+00  -1.0025125002531654e+00  -1.0234436384590009e+00  -9.9793593396150548e-01  -1.0196499964773553e+00  -9.8994370115499875e-01  -1.0116389820070602e+00  -9.8047700961427997e-01  -1.0032069760140345e+00  -9.7342005441692636e-01  -9.9601975017874589e-01  -9.6776838986404834e-01  -1.0275882277305406e+00  -9.4299794825020167e-01  -9.4299211609363121e-01  -1.0177162137508835e+00  -1.0479993741233460e+00  -9.2078109667401609e-01  -9.2229143915427525e-01  -9.0097663840843367e-01  -9.0626396482640448e-01  -8.8598305707507341e-01  -8.9440833465624425e-01  -8.7500661162261262e-01  -8.8296109749634466e-01  -8.6622514909292914e-01  -8.7557976917641289e-01  -8.5967605045838447e-01  -8.6578921559232158e-01  -8.5258480073083731e-01  -8.5718878447853608e-01  -8.4471245069057832e-01  -8.4747582388069398e-01  -8.3527658811452687e-01  -8.3655848373038244e-01  -8.2391437762669939e-01  -8.2403835424041072e-01  -8.1065817179032629e-01  -8.1058020547271392e-01  -7.9601683436729997e-01  -7.9613243105387266e-01  -7.8103273578389965e-01  -7.8135951560665007e-01  -7.6352366269905025e-01  -1.0366104625973522e+00  -1.0626075991414798e+00  -7.6695723857727205e-01  -7.4849304354687773e-01  -7.5179166186652735e-01  -7.3383768700088459e-01  -7.3787727232369082e-01  -7.1945248340481582e-01  -7.2392026452435132e-01  -7.0589512312777136e-01  -9.4387642239305047e-01  -7.1021083813191199e-01  -6.9313050102348139e-01  -6.9737455676538551e-01  -6.8124686370013299e-01  -6.8313386195686909e-01  -6.7000963069582309e-01  -1.0520605142495727e+00  -1.0792895621280045e+00  -1.0464644137272376e+00  -6.7022271275149381e-01  -6.5959443455727040e-01  -6.5752394581373252e-01  -6.4995506486871524e-01  -6.4540515890446692e-01  -6.4095454916208661e-01  -1.0762309425592167e+00  -6.3358013052584028e-01  -6.3229553606279965e-01  -9.0495579114747704e-01  -6.2204235303405531e-01  -6.2374362436162556e-01  -6.1079446363397649e-01  -6.1486362441232101e-01  -5.9960555148937267e-01  -6.0544212272804410e-01  -9.7026724041146184e-01  -8.7241435149417557e-01  -5.8812769097756923e-01  -5.9494849165533492e-01  -1.0653827939409994e+00  -1.0891691856839945e+00  -1.0419940302789716e+00  -8.3737290096939310e-01  -5.7652407564362418e-01  -5.8349177523258589e-01  -5.6440089669252258e-01  -5.7095065214178597e-01  -5.5272878113626933e-01  -5.5805558779777897e-01  -6.5949999515420377e-01  -6.0187989051152513e-01  -6.3864757369009006e-01  -6.9017947711410077e-01  -5.4169292603104002e-01  -5.4542636979595605e-01  -5.6193856389242969e-01  -5.4739533388901462e-01  -5.3382576205466947e-01  -5.3370500298030177e-01  -5.2380008538728617e-01  -5.2125775969469801e-01  -5.1552568002969834e-01  -5.1081698497890771e-01  -5.0923313501233047e-01  -5.0290605041003422e-01  -5.0461030323859157e-01  -4.9701130564471901e-01  -5.0141027379029268e-01  -4.9272099704816391e-01  -4.9865706424491058e-01  -4.8880100363093448e-01  -4.9605306172867636e-01  -4.8514492878030768e-01  -4.9255559761560053e-01  -4.8101748647287829e-01  -4.8834226112311369e-01  -4.7556900125399498e-01  -7.3192077696349511e-01  -7.9846917429499509e-01  -4.8200106257088671e-01  -4.6859716881381430e-01  -4.7330138641071751e-01  -4.5929729354125282e-01  -8.7106097201562216e-01  -8.1227861406223367e-01  -4.6237174997158337e-01  -4.4829630354033123e-01  -8.4284328200184055e-01  -7.5639378937980639e-01  -1.0753562276314952e+00  -1.0988115678100561e+00  -1.1176049067556966e+00  -1.1246977724685818e+00  -1.1463954841965780e+00  -1.1509769560099603e+00  -1.1810096654914097e+00  -1.1785955871493952e+00  -1.2095300309406953e+00  -1.2033629792873901e+00  -1.2389812662218842e+00  -1.2251142588768695e+00  -1.2596106676611663e+00  -1.2412857493877714e+00  -1.2731154842733585e+00  -1.2523833148281327e+00  -1.2794791764568199e+00  -1.2580812219222839e+00  -1.2805308198543914e+00  -1.2595668620223672e+00  -1.2777439332812635e+00  -1.2581207297196217e+00  -1.2728052457842671e+00  -1.2548676377521781e+00  -1.2666071773873921e+00  -1.2505328318875322e+00  -1.2589536888489912e+00  -1.2443143468436295e+00  -1.2348542984783830e+00  -1.2311748143414152e+00  -1.2390966317304299e+00  -1.2271492255140783e+00  -1.2344764480963932e+00  -1.2230446159941923e+00  -1.2285016796038359e+00  -1.2183676945039075e+00  -1.2186136245020194e+00  -1.2200531021916867e+00  -1.2399703456328290e+00  -1.2228363541290634e+00  -1.2135842496224003e+00  -1.2081120561024363e+00  -1.2044069588161133e+00  -1.2087669240445955e+00  -1.2006865005118856e+00  -1.2038710554291792e+00  -1.1966058664162136e+00  -1.1989874400827156e+00  -1.1921783036741933e+00  -1.1954676578223609e+00  -1.1679100625893448e+00  -1.2808589757947972e+00  -1.1941991006984913e+00  -1.1878189137748398e+00  -1.1854239184931736e+00  -1.1814707197886511e+00  -1.1834726431089395e+00  -1.1776523484238841e+00  -1.1790237298034172e+00  -1.1736561214007049e+00  -1.3067339676569325e+00  -1.1753083830603932e+00  -1.1746037606691733e+00  -1.1696765763786410e+00  -1.2995872507321746e+00  -1.1703272462262597e+00  -1.1655393470930684e+00  -1.1649827993320965e+00  -1.1607530711954761e+00  -1.1613188518801552e+00  -1.1566805595057095e+00  -1.1558786946205002e+00  -1.1520583340311965e+00  -1.1525995453230007e+00  -1.1481718948688979e+00  -1.1484645278829737e+00  -1.1441321858077784e+00  -1.1437885284014477e+00  -1.1399138428731395e+00  -1.1400124819284425e+00  -1.1359559047141115e+00  -1.1358986102949524e+00  -1.1319425945442418e+00  -1.1283627728943202e+00  -1.2461387812874516e+00  -1.2825264438490798e+00  -1.1318288408674861e+00  -1.1279195928032812e+00  -1.1279966640596371e+00  -1.1239143387690909e+00  -1.1237062090946821e+00  -1.1198005783607436e+00  -1.1239806976962490e+00  -4.4947384558090175e-01  -4.3553219495751788e-01  -4.3482589043791736e-01  -4.2125848021779022e-01  -4.1848914759273820e-01  -4.0592331559483363e-01  -1.2116894078892286e+00  -6.8366828087679232e-01  -1.0278072277815569e+00  -1.1194377015203236e+00  -1.1156707960414385e+00  -1.2320636735556878e+00  -4.9149200392946996e-01  -4.6511959455287893e-01  -5.6236269378756532e-01  -4.0132181595573696e-01  -3.9024954376664089e-01  -3.9460932445654912e-01  -3.8108421405998050e-01  -3.7454432977106028e-01  -3.6733117958682998e-01  -3.5914050892968996e-01  -3.5357566837306142e-01  -3.4423425408911640e-01  -3.4011039158516632e-01  -3.2997737292009427e-01  -3.2669086879211734e-01  -3.1628517637469100e-01  -3.1323901329807308e-01  -3.0310384753814368e-01  -3.0016167551114581e-01  -2.9042962858768934e-01  -2.8731060928955077e-01  -2.7836434920044389e-01  -2.7472432747948172e-01  -2.6643567030589332e-01  -2.6225596465572770e-01  -2.5441338223786342e-01  -2.4989401805842068e-01  -2.4256283716192148e-01  -2.3760728947210089e-01  -2.3071865327990929e-01  -2.2537589811071657e-01  -2.1880575310537076e-01  -2.1314677220701964e-01  -2.0622977117399877e-01  -2.0080738732301448e-01  -4.3171892213839341e-01  -1.1396400330884988e+00  -1.1848501106752105e+00  -1.1150906317458349e+00  -1.111398958981131