<?xml version="1.0"?>
<VTKFile type="UnstructuredGrid"  version="0.1"  >
<UnstructuredGrid>
<Piece  NumberOfPoints="2886" NumberOfCells="5412">
<Points>
<DataArray  type="Float64"  NumberOfComponents="3"  format="ascii">0 0.1 0  0.98 0.1 0  1 0.1 0  1 0 0  1.5 0 0  3 0 0  3 0.3 0  0 0.3 0  0.01975375321854102 0.1 0  0.03918897458218897 0.1 0  0.05831079002627837 0.1 0  0.07712425666319796 0.1 0  0.0956343475259058 0.1 0  0.1138459546796227 0.1 0  0.1317638870668193 0.1 0  0.1493928840275937 0.1 0  0.1667376092280033 0.1 0  0.1838026357802664 0.1 0  0.2005924801287244 0.1 0  0.2171115811543574 0.1 0  0.2333643037107681 0.1 0  0.2493549444060462 0.1 0  0.2650877293306821 0.1 0  0.2805668058011438 0.1 0  0.2957962848620976 0.1 0  0.3107801766802674 0.1 0  0.3255224447361181 0.1 0  0.3400269848175519 0.1 0  0.3542976327080778 0.1 0  0.3683381609158136 0.1 0  0.3821522744564845 0.1 0  0.3957436316838916 0.1 0  0.4091158196437086 0.1 0  0.4222723742184605 0.1 0  0.4352167733293057 0.1 0  0.4479524348643424 0.1 0  0.4604827295467524 0.1 0  0.4728109659990664 0.1 0  0.4849404035409129 0.1 0  0.4968742471455402 0.1 0  0.508615651843175 0.1 0  0.520167721130924 0.1 0  0.5315335063628542 0.1 0  0.5427160117228604 0.1 0  0.5537181940261912 0.1 0  0.564542961924507 0.1 0  0.575193173270606 0.1 0  0.5856716438765114 0.1 0  0.5959811458006617 0.1 0  0.6061243988680743 0.1 0  0.6161040893285659 0.1 0  0.6259228503970299 0.1 0  0.6355832809287655 0.1 0  0.6450879281079505 0.1 0  0.6544393102991295 0.1 0  0.663639896558931 0.1 0  0.6726921201956305 0.1 0  0.6815983691630338 0.1 0  0.6903610031396646 0.1 0  0.6989823343332418 0.1 0  0.7074646404270378 0.1 0  0.7158101645005117 0.1 0  0.7240211149852543 0.1 0  0.7320996585612525 0.1 0  0.7400479319727645 0.1 0  0.7478680336617921 0.1 0  0.755562036504958 0.1 0  0.7631319665092091 0.1 0  0.7705798279317605 0.1 0  0.777907588066146 0.1 0  0.7851171851013118 0.1 0  0.7922105226004981 0.1 0  0.7991894774550319 0.1 0  0.8060558928136696 0.1 0  0.812811583201334 0.1 0  0.8194583352091183 0.1 0  0.8259979035038147 0.1 0  0.8324320194413813 0.1 0  0.8387623808293405 0.1 0  0.8449906627004957 0.1 0  0.8511185094880469 0.1 0  0.8571475426008311 0.1 0  0.8630793533568246 0.1 0  0.8689155114558531 0.1 0  0.8746575581239063 0.1 0  0.8803070109173519 0.1 0  0.885865363938836 0.1 0  0.8913340851680313 0.1 0  0.8967146206523592 0.1 0  0.9020083930695622 0.1 0  0.9072167995950768 0.1 0  0.9123412183131177 0.1 0  0.9173830029719022 0.1 0  0.9223434865647732 0.1 0  0.9272239785872722 0.1 0  0.9320257720706087 0.1 0  0.9367501330378739 0.1 0  0.9413983102716995 0.1 0  0.9459715351562933 0.1 0  0.9504710127113115 0.1 0  0.9548979346500661 0.1 0  0.9592534708344373 0.1 0  0.9635387708980176 0.1 0  0.9677549682252325 0.1 0  0.971903177251235 0.1 0  0.9759844952956497 0.1 0  0.9840000000000086 0.1 0  0.987999999999974 0.1 0  0.9919999999999393 0.1 0  0.9959999999999913 0.1 0  1 0.09591793123533533 0  1 0.09133596463859224 0  1 0.08619288104391448 0  1 0.08041996484521211 0  1 0.07394008421771697 0  1 0.06666666567302955 0  1 0.05850252932209174 0  1 0.04933859630113544 0  1 0.03905242821848202 0  1 0.02750659386753798 0  1 0.01454683679239736 0  1.015625 0 0  1.03125 0 0  1.046875 0 0  1.0625 0 0  1.078125 0 0  1.09375 0 0  1.109375 0 0  1.125 0 0  1.140625 0 0  1.15625 0 0  1.171875 0 0  1.1875 0 0  1.203125 0 0  1.21875 0 0  1.234375 0 0  1.25 0 0  1.265625 0 0  1.28125 0 0  1.296875 0 0  1.3125 0 0  1.328125 0 0  1.34375 0 0  1.359375 0 0  1.375 0 0  1.390625 0 0  1.40625 0 0  1.421875 0 0  1.4375 0 0  1.453125 0 0  1.46875 0 0  1.484375 0 0  1.515920751924515 0 0  1.531989369316721 0 0  1.54820720925872 0 0  1.564575665560501 0 0  1.581096138674279 0 0  1.597770029901263 0 0  1.614598783332311 0 0  1.631583831055205 0 0  1.64872661129721 0 0  1.666028606716533 0 0  1.683491276608443 0 0  1.701116134125304 0 0  1.718904673324128 0 0  1.736858414799339 0 0  1.754978895814663 0 0  1.773267661782904 0 0  1.791726281103402 0 0  1.810356325314689 0 0  1.8291593848892 0 0  1.848137076690385 0 0  1.867291007717254 0 0  1.886622833871288 0 0  1.90613418642363 0 0  1.925826753299799 0 0  1.945702199101513 0 0  1.96576223584749 0 0  1.986008569283268 0 0  2.006442931928877 0 0  2.02706707547783 0 0  2.047882750887917 0 0  2.06889175187935 0 0  2.090095860038271 0 0  2.111496891648636 0 0  2.133096679109554 0 0  2.154897066851056 0 0  2.176899916687499 0 0  2.199107102752146 0 0  2.22152053937028 0 0  2.244142122958061 0 0  2.266973806444078 0 0  2.290017523268154 0 0  2.313275249499252 0 0  2.336748971745516 0 0  2.360440702338606 0 0  2.384352453384031 0 0  2.408486280477412 0 0  2.432844240041185 0 0  2.457428414757088 0 0  2.482240901796653 0 0  2.507283830121838 0 0  2.532559332080812 0 0  2.558069568787417 0 0  2.583816724966441 0 0  2.60980299606584 0 0  2.636030600971886 0 0  2.662501790984011 0 0  2.689218818279327 0 0  2.716183964547616 0 0  2.743399548861297 0 0  2.77086788244719 0 0  2.798591312896326 0 0  2.826572223178268 0 0  2.854812990138617 0 0  2.883316031690714 0 0  2.912083780657189 0 0  2.941118704633482 0 0  2.970423276998917 0 0  3 0.02999999999994495 0  3 0.05999999999987042 0  3 0.089999999999783 0  3 0.119999999999701 0  3 0.149999999999619 0  3 0.179999999999692 0  3 0.2099999999997737 0  3 0.2399999999998511 0  3 0.2699999999999185 0  2.970138294777171 0.3 0  2.940375666438236 0.3 0  2.910711782853056 0.3 0  2.881146331305122 0.3 0  2.851678975030285 0.3 0  2.822309388626621 0.3 0  2.793037250095074 0.3 0  2.76386223529133 0.3 0  2.734784017903872 0.3 0  2.705802289276642 0.3 0  2.676916713794697 0.3 0  2.648126987654635 0.3 0  2.619432780406184 0.3 0  2.590833779385199 0.3 0  2.562329669847737 0.3 0  2.533920134950189 0.3 0  2.505604855727852 0.3 0  2.477383539822502 0.3 0  2.449255847639465 0.3 0  2.421221492569094 0.3 0  2.393280152486815 0.3 0  2.36543151914496 0.3 0  2.337675285481809 0.3 0  2.310011142385583 0.3 0  2.282438797441587 0.3 0  2.254957931061538 0.3 0  2.227568248063605 0.3 0  2.200269436651085 0.3 0  2.173061204949961 0.3 0  2.145943251515011 0.3 0  2.118915272469994 0.3 0  2.091976978084957 0.3 0  2.065128060700849 0.3 0  2.038368218849433 0.3 0  2.01169717777258 0.3 0  1.985114624111908 0.3 0  1.958620267850966 0.3 0  1.93221382054972 0.3 0  1.905894991850698 0.3 0  1.879663489459713 0.3 0  1.853519019126419 0.3 0  1.827461291053897 0.3 0  1.801490031354372 0.3 0  1.775604937580312 0.3 0  1.74980572560258 0.3 0  1.724092118631866 0.3 0  1.698463829173586 0.3 0  1.672920575782554 0.3 0  1.647462076974085 0.3 0  1.622088043536933 0.3 0  1.5967981978949 0.3 0  1.571592267767068 0.3 0  1.546469970305736 0.3 0  1.521431023814044 0.3 0  1.496475156230927 0.3 0  1.471602093687753 0.3 0  1.446811560490646 0.3 0  1.422103279101731 0.3 0  1.397476971708191 0.3 0  1.37293238939876 0.3 0  1.348469231419202 0.3 0  1.324087248732772 0.3 0  1.299786165921677 0.3 0  1.275565710847046 0.3 0  1.251425617644257 0.3 0  1.227365618676339 0.3 0  1.203385446174014 0.3 0  1.179484853067473 0.3 0  1.155663548773374 0.3 0  1.131921292279077 0.3 0  1.108257802159295 0.3 0  1.084672829009693 0.3 0  1.061166115303374 0.3 0  1.037737392995421 0.3 0  1.01438640299116 0.3 0  0.991112899770314 0.3 0  0.9679166155523955 0.3 0  0.944797284182564 0.3 0  0.921754678526042 0.3 0  0.8987885143602501 0.3 0  0.8758985548820624 0.3 0  0.8530845484099929 0.3 0  0.8303462351786988 0.3 0  0.8076833651172373 0.3 0  0.7850956864865304 0.3 0  0.7625829601354557 0.3 0  0.7401449314598274 0.3 0  0.717781337993959 0.3 0  0.6954919649675473 0.3 0  0.6732765357561226 0.3 0  0.6511348120768439 0.3 0  0.6290665642016573 0.3 0  0.6070715355430467 0.3 0  0.5851494825775325 0.3 0  0.5633001690203812 0.3 0  0.5415233562273221 0.3 0  0.5198187909431873 0.3 0  0.4981862401387795 0.3 0  0.4766254686134248 0.3 0  0.4551362360485234 0.3 0  0.4337182975262159 0.3 0  0.4123714223228037 0.3 0  0.3910953802377493 0.3 0  0.3698899313205595 0.3 0  0.3487548463710963 0.3 0  0.3276898864081783 0.3 0  0.3066948129116018 0.3 0  0.2857694003037476 0.3 0  0.2649134227095047 0.3 0  0.2441266417321288 0.3 0  0.2234088223399122 0.3 0  0.2027597568977288 0.3 0  0.1821792020676698 0.3 0  0.1616669305402443 0.3 0  0.1412227158799362 0.3 0  0.12084633013886 0.3 0  0.1005375673448281 0.3 0  0.08029618164595353 0.3 0  0.06012194778526769 0.3 0  0.04001466495039718 0.3 0  0.01997408913631205 0.3 0  0 0.2800000000000553 0  0 0.2600000000001105 0  0 0.2400000000001658 0  0 0.2200000000002211 0  0 0.2000000000002764 0  0 0.1800000000002244 0  0 0.1600000000001691 0  0 0.140000000000115 0  0 0.1200000000000564 0  1.13346801534201 0.01255848438672509 0  1.003577645172735 0.09351054173913405 0  0.9777559943702486 0.1034978156913738 0  0.9524533750752109 0.1040889939962738 0  0.9296242411226409 0.1041520033606139 0  0.9046110503652111 0.104409422380137 0  0.8777709649694228 0.1053360318797398 0  0.8483859145648608 0.1061007868330701 0  0.8162363822948977 0.1052777104363292 0  0.7893110024210437 0.1060761643971561 0  0.7587949382612539 0.1067265405088633 0  0.7280603867732535 0.1069398153264939 0  0.6947001989413015 0.1075609887579097 0  0.6590363283767549 0.1076715322596598 0  0.6210028614493155 0.1072970410408442 0  1.1953125 0.01353164693413185 0  1.258193991486058 0.01269648635163345 0  1.3201967268638 0.01407907077719561 0  1.383538555392096 0.01434101079053473 0  1.445312500000001 0.01303671693628424 0  1.508925448095738 0.01398525724792267 0  0.9939176689634008 0.1034638089837981 0  1.120967497222226 0.2796788492172345 0  1.572835902117391 0.01424132418857359 0  1.637573277451887 0.01212536916586023 0  1.709730776795181 0.01466855431023635 0  1.005631976950563 0.07074019818158772 0  1.784944696816299 0.01454708406461822 0  0.5805605730631225 0.1101465090472147 0  1.855621181165637 0.01550931272897607 0  0.5366111276616774 0.1096761308243709 0  1.935200147913231 0.01760344159641829 0  1.214922267975168 0.2799787705802257 0  1.31178773425331 0.2792
[...]
<PointData  Scalars="pressure"> 
<DataArray  type="Float64"  Name="pressure"  format="ascii">-4.9182228312196407e-03  -1.0563340164752870e+00  -1.3010222152926723e-02  -9.1046963968803747e-03  1.5081694657690235e-02  0.0000000000000000e+00  0.0000000000000000e+00  -4.8407758687503992e-03  -1.0844308837743599e-02  -1.6675594355455854e-02  -2.2413930097580088e-02  -2.8060916729271523e-02  -3.3618278203535350e-02  -3.9087610069380899e-02  -4.4470267383652007e-02  -4.9768199600546237e-02  -5.4982768616782043e-02  -6.0115524508671782e-02  -6.5168370586077051e-02  -7.0142829192225517e-02  -7.5040264726890057e-02  -7.9862767928755324e-02  -8.4611936696020351e-02  -8.9288690878531057e-02  -9.3896029811985235e-02  -9.8435047325083319e-02  -1.0290750896909476e-01  -1.0731601030449765e-01  -1.1166185910070321e-01  -1.1594615075588571e-01  -1.2017260780248253e-01  -1.2434213907600865e-01  -1.2845813183859664e-01  -1.3252209025941425e-01  -1.3653504133063346e-01  -1.4050072952764542e-01  -1.4442201887191106e-01  -1.4830053329439677e-01  -1.5213896106979710e-01  -1.5594084380180695e-01  -1.5970770572351703e-01  -1.6344385819050064e-01  -1.6715146354998975e-01  -1.7083459600674561e-01  -1.7449634463999658e-01  -1.7813544695331096e-01  -1.8176378775145946e-01  -1.8537989659905449e-01  -1.8898777651812573e-01  -1.9259406391368986e-01  -1.9620217574983115e-01  -1.9980909995373575e-01  -2.0343097189851961e-01  -2.0706564918264792e-01  -2.1071873017220555e-01  -2.1439615529277165e-01  -2.1810255395876474e-01  -2.2184336150533873e-01  -2.2562583661254518e-01  -2.2945479828985807e-01  -2.3333546708865241e-01  -2.3727335209911288e-01  -2.4128204609478168e-01  -2.4536067426594702e-01  -2.4952003938588393e-01  -2.5376276778499512e-01  -2.5811037070044857e-01  -2.6256532061866145e-01  -2.6712503127310805e-01  -2.7180957375693698e-01  -2.7663759901513196e-01  -2.8160210072182518e-01  -2.8673039173010678e-01  -2.9203226374229208e-01  -2.9750921187872204e-01  -3.0318598491377269e-01  -3.0907744002220860e-01  -3.1519939780336598e-01  -3.2158456171165573e-01  -3.2824012291778643e-01  -3.3517838790688598e-01  -3.4241470968566540e-01  -3.5002974300138684e-01  -3.5801544966835669e-01  -3.6640053074087581e-01  -3.7524246770504271e-01  -3.8457146003551262e-01  -3.9444084250200262e-01  -4.0490309891526732e-01  -4.1605880107809345e-01  -4.2796689806762506e-01  -4.4069531444863774e-01  -4.5440122286999185e-01  -4.6921582012714647e-01  -4.8530582184486076e-01  -5.0289594601905796e-01  -5.2226137411924733e-01  -5.4376268841195108e-01  -5.6789789378974664e-01  -5.9535791908663604e-01  -6.2712272168084737e-01  -6.6455614283451070e-01  -7.1035880012287356e-01  -7.6849792824259311e-01  -8.4541171705147367e-01  -9.8019762199487448e-01  -2.1841943763377607e+00  -1.9254417128879833e+00  -1.3324990349413763e+00  -7.8261229825703715e-01  -1.6173994873667874e-01  -7.3137195964607105e-02  -5.6160938680289582e-02  -4.0024413947456414e-02  -2.9919461334984562e-02  -2.2867112827506701e-02  -1.7721428822646608e-02  -1.3606861752731531e-02  -1.0436048172827818e-02  -8.4862577798222438e-03  -8.3544787347094498e-03  -1.0025052655982171e-02  -9.7870005975527197e-03  -7.6736690796085309e-03  -3.7620408386166470e-03  1.9038828610756561e-03  9.1250827869564927e-03  1.7618461379674478e-02  2.6980560842962228e-02  3.6546550108356252e-02  4.5719268010429005e-02  5.3997390057327739e-02  6.0962088145794978e-02  6.6385568737181017e-02  7.0141201948708376e-02  7.2204712490539044e-02  7.2692411406307070e-02  7.1774449219918685e-02  6.9651947178993395e-02  6.6593218831726989e-02  6.2792953050302469e-02  5.8417896173772327e-02  5.3817007451157584e-02  4.8985071533568729e-02  4.4195086773860581e-02  3.9523093405446685e-02  3.5074378087069966e-02  3.0868272278289074e-02  2.6996298650508774e-02  2.3464602930833061e-02  2.0304376813765190e-02  1.7512180847839346e-02  1.2967039602030805e-02  1.1187373079487735e-02  9.7347788432350004e-03  8.5771221153350587e-03  7.7067927728216830e-03  7.1236368775122166e-03  6.7472945193883483e-03  6.6042776537879513e-03  6.6711956823077775e-03  6.9100819148730916e-03  7.2993144636024606e-03  7.8227261277571264e-03  8.4654059449121733e-03  9.2030440864817892e-03  1.0021654537928262e-02  1.0905934450084838e-02  1.1837969945247042e-02  1.2809875769984467e-02  1.3804012356353760e-02  1.4815758875020785e-02  1.5829795986715911e-02  1.6838757922201308e-02  1.7834376743191410e-02  1.8812706958792225e-02  1.9762321954937597e-02  2.0679350839844242e-02  2.1564394047063763e-02  2.2404266652101757e-02  2.3197711268310089e-02  2.3942119508285852e-02  2.4633498546796324e-02  2.5266852967041196e-02  2.5841702277630812e-02  2.6354858021627819e-02  2.6801584429287144e-02  2.7181144964470084e-02  2.7489581059357594e-02  2.7725957682100406e-02  2.7887073399815589e-02  2.7971366872346456e-02  2.7977434018607021e-02  2.7903372356695190e-02  2.7747359790975472e-02  2.7509891916008295e-02  2.7187632825250239e-02  2.6780865594701442e-02  2.6292962882306557e-02  2.5719220992464646e-02  2.5059557969806905e-02  2.4325373384105044e-02  2.3504168147792888e-02  2.2612212910721383e-02  2.1636272867594546e-02  2.0595554397388492e-02  1.9481928407834487e-02  1.8295136468453141e-02  1.7053628539774227e-02  1.5742437764391930e-02  1.4381356955587943e-02  1.2965880522349350e-02  1.1499576663007272e-02  9.9841574037787487e-03  8.4254636541386332e-03  6.8294576926203662e-03  5.1946385021575062e-03  3.5251163436059258e-03  1.8257247525630879e-03  0.0000000000000000e+00  0.0000000000000000e+00  0.0000000000000000e+00  0.0000000000000000e+00  0.0000000000000000e+00  0.0000000000000000e+00  0.0000000000000000e+00  0.0000000000000000e+00  0.0000000000000000e+00  1.8650192978246175e-03  3.7028712431156131e-03  5.5007953695531695e-03  7.2565814973304301e-03  8.9722988927196535e-03  1.0649439543453158e-02  1.2289153009462241e-02  1.3893411790648368e-02  1.5464410940371053e-02  1.7003870085124457e-02  1.8513940642588555e-02  1.9996883500099615e-02  2.1454044389862082e-02  2.2888176794083320e-02  2.4301109426922530e-02  2.5691285816977528e-02  2.7061569437433746e-02  2.8409786001581207e-02  2.9735068034096833e-02  3.1033882584916770e-02  3.2302752693596282e-02  3.3533825943987794e-02  3.4724544583676978e-02  3.5859719553856979e-02  3.6928577614419554e-02  3.7919774979454063e-02  3.8812702691733938e-02  3.9589161553145007e-02  4.0229286206328423e-02  4.0709599550410501e-02  4.1002925015849193e-02  4.1075427687628743e-02  4.0924153241887647e-02  4.0514217582224892e-02  3.9786174493171421e-02  3.8760024292047737e-02  3.7393174278573964e-02  3.5678965506152883e-02  3.3596574985514889e-02  3.1155367959209951e-02  2.8350171325564003e-02  2.5184286889811846e-02  2.1689622408111803e-02  1.7879461872455250e-02  1.3784241645399733e-02  9.4403424765595462e-03  4.8799723264826740e-03  1.4727679199056889e-04  -4.7231060957684491e-03  -9.6794497869555664e-03  -1.4690608283822886e-02  -1.9721642797529724e-02  -2.4739445155357725e-02  -2.9722171122970448e-02  -3.4648472448745950e-02  -3.9502412769903163e-02  -4.4278730724343490e-02  -4.8981197668734773e-02  -5.3607176302047949e-02  -5.8169215564476892e-02  -6.2690041279969549e-02  -6.7191739354559452e-02  -7.1706991775310577e-02  -7.6274722960879532e-02  -8.0943213841524558e-02  -8.5767948963921786e-02  -9.0811739404052724e-02  -9.6157702410123960e-02  -1.0188058539041346e-01  -1.0808019324199633e-01  -1.1486094238590151e-01  -1.2231044786569853e-01  -1.3049569096297878e-01  -1.3943315310266388e-01  -1.4896320275392505e-01  -1.5892150126804236e-01  -1.6888017032496472e-01  -1.7841949823931519e-01  -1.8710665171652621e-01  -1.9472072857403547e-01  -2.0067682430937242e-01  -2.0508455824360816e-01  -2.0783272594563135e-01  -2.0934785222572874e-01  -2.0950405592241586e-01  -2.0840975079691318e-01  -2.0641571127053360e-01  -2.0361250190289146e-01  -2.0006078532302168e-01  -1.9596751614841035e-01  -1.9137166303204653e-01  -1.8645021328456354e-01  -1.8122939072596622e-01  -1.7573264917642803e-01  -1.7007837390578256e-01  -1.6427965222075677e-01  -1.5834893717922682e-01  -1.5232352563781207e-01  -1.4623703516648401e-01  -1.4010246157824313e-01  -1.3392600701058080e-01  -1.2772479395026087e-01  -1.2150153539794326e-01  -1.1527431028638246e-01  -1.0903996459433823e-01  -1.0280703346220790e-01  -9.6579184212994287e-02  -9.0358102720230440e-02  -8.4147810373311135e-02  -7.7949544039058780e-02  -7.1764381769413327e-02  -6.5593981541619426e-02  -5.9439344873842892e-02  -5.3301141397697420e-02  -4.7179915094032299e-02  -4.1076568813677369e-02  -3.4990942938895556e-02  -2.8923539253919744e-02  -2.2874706571220274e-02  -1.6844449795333626e-02  -1.0833108137399700e-02  -4.8410755964957168e-03  -4.8442965167564776e-03  -4.8521590529865830e-03  -4.8644986869660891e-03  -4.8794859233818192e-03  -4.8944886478475939e-03  -4.9068541478248448e-03  -4.9147691777224551e-03  -4.9179786230409937e-03  3.1244792932837859e-02  -7.0929407545829812e-02  -1.0939276800530349e+00  -6.1523572115756342e-01  -4.9657876073786644e-01  -4.2344645754078386e-01  -3.7233394632218919e-01  -3.3284211297960570e-01  -3.0089380226790885e-01  -2.7994245525516476e-01  -2.6028638498467715e-01  -2.4352383299338293e-01  -2.2770791582666214e-01  -2.1266286393972558e-01  -1.9806967885263194e-01  6.2314712265141174e-02  7.1087622773799847e-02  5.9851952833921203e-02  4.1344667817613451e-02  2.5242667476911358e-02  1.4122311866183155e-02  -6.5956342420546732e-01  -1.1047833537925063e-01  8.4860941005419094e-03  6.9251796981154110e-03  8.4432325156920743e-03  -2.6103979673733579e-02  1.1747388007896844e-02  -1.8367579663231384e-01  1.5411269675935388e-02  -1.6886033931708336e-01  1.9411858759453404e-02  -8.8117669667700405e-02  -6.9390912544610370e-02  2.3010050537158083e-02  -5.1392652811863504e-02  -1.5406006836996980e-01  -2.7407807121310055e-02  2.5564654174293436e-02  -1.3853365635013393e-01  5.6701409195682407e-03  2.7339203695689616e-02  -2.5963223214869433e-03  -1.3427867452800232e-01  -1.2270684240823940e-01  2.7951858842377969e-02  2.3054303153000822e-02  -1.0492727848330349e-01  3.1890992312169755e-02  2.7294697110832159e-02  3.7826522477175724e-02  -8.7478906460097247e-02  -1.6213452542137075e-01  2.5380305923137364e-02  4.0480115925721705e-02  -1.8969330629821388e-01  4.0633890624187215e-02  2.2085522491294432e-02  -2.0577227989005586e-01  -6.7179719328840745e-02  -5.3125005476319993e-02  1.1259769465035149e-02  1.8838074857903907e-02  1.4858252003490729e-02  3.9021720024194635e-02  -2.0866661306343734e-01  3.5107292186041923e-02  -7.4377236968898142e-01  -1.9814018802358718e-01  3.1587017503563075e-02  -3.5647871471958442e-02  -1.8379759265728443e-01  1.0690054320635484e-02  2.6361113505436389e-02  -1.6703479575064414e-01  -1.4299563395091058e-01  2.2150434211816245e-02  -1.1215036031049151e-01  1.7748694171088927e-02  -9.3410299149622567e-02  -7.4749641864207489e-02  1.3097814781414864e-02  -4.3234545774860224e-02  1.6483423059807992e-03  -1.0453154175399482e-02  -1.2556527672642068e-02  8.2679332541016892e-03  5.8589602232853614e-03  -2.5448075143892301e-02  -4.3562797965996151e-02  -5.3732333886606200e-03  -9.8553594416233473e-02  -2.0477021273180970e-01  -1.5577627865417940e-01  -1.3113438365763377e-01  -2.5186184641158984e-02  -1.7871317779814273e-02  -4.1802030683346258e-02  -6.0349654199182950e-02  -7.8434222598311565e-02  -7.7157586393096778e-02  3.7289688816157879e-02  -9.6459648567609801e-02  -6.2552788159050965e-02  2.9023560523255078e-02  2.3888417312112654e-02  -1.1437911455469130e-01  2.6440074765034904e-02  2.7792660013456819e-02  -1.3024532147903570e-01  2.7795861498881688e-02  2.6587341229818557e-02  2.4245723228688513e-02  2.1345368306349637e-02  1.0742964269925357e-02  -1.4638041465606672e-01  1.7427449447454325e-02  1.3560090305952358e-02  -1.6158693453450998e-01  9.9640969376872269e-03  7.4267168955617401e-03  7.2866129677079733e-03  1.3199975393740975e-03  -1.7676068331082506e-01  -1.9032583984277945e-01  -1.0139563284688990e-02  -2.0495286779051064e-01  -2.2010510481920442e-01  -2.3548638940392960e-01  -2.5205851820286640e-01  -2.6989425632618219e-01  -2.8956292740652145e-01  4.9112222637623208e-02  -3.1899796207262487e-01  -3.5482492488491585e-01  -4.0094121557667317e-01  6.9852162599344167e-02  -4.6421033816618879e-01  5.1020005155178169e-02  6.6887375645248326e-02  3.3436905785139692e-02  1.9039417791528263e-02  -5.5940367576153882e-01  -1.5856855630260560e+00  1.7510710983354633e-03  -1.0587726188545839e-02  4.5946755974605770e-03  -9.0633882521658909e-03  -9.9016034106112621e-03  1.3713563579257398e-03  -1.3936428336564305e-02  -7.9229451515511022e-03  -7.3090249440586133e-03  -4.8295021062082942e-03  -7.6908342629927722e-03  -5.0108390343840984e-03  -7.9770737277829913e-03  -4.3884314814516528e-03  -7.3913153481085028e-03  -3.2767448408651790e-03  -6.3092712365904711e-03  -2.3315513211260947e-03  -6.4056972894663208e-03  -2.5240822793011451e-03  -9.4820060812565009e-03  -5.6026917865546096e-03  -1.6208877611520529e-02  -1.2302853604576561e-02  -2.6630277639636955e-02  -2.2562250787010164e-02  -3.9625286021419896e-02  -3.4361666739332997e-02  -4.6438297669339455e-02  -1.5317677662576626e-02  -2.9891008083495041e-02  -5.9392989455656658e-02  -6.8523576827956845e-02  -1.2531405603149874e-02  -2.6229046253958863e-02  -8.0530121025320679e-03  -2.4220501376312670e-02  -4.7340968779872698e-03  -2.3929077356957498e-02  -2.5828235130655125e-03  -2.1558762751666845e-02  -1.0317204592087761e-03  -2.4242141661550306e-02  -2.1540080310106053e-03  -2.2405559645983484e-02  -2.5827339281015824e-03  -2.3511391257956860e-02  -4.0651155790886488e-03  -2.4646841083143411e-02  -6.0213813846417977e-03  -2.6242775907543765e-02  -8.2657083325557660e-03  -2.7179645571944005e-02  -1.0535223426673568e-02  -2.8482393862198266e-02  -1.2757579384656721e-02  -2.9137794945240821e-02  -1.5719871364679335e-02  -2.9695791519640059e-02  -1.5315058907109855e-02  -8.0261558177414580e-02  -9.3634001980324830e-02  -3.0351509753544718e-02  -1.7966867625325653e-02  -2.9634951728476432e-02  -1.8405426431053355e-02  -2.9515376972013799e-02  -1.8866886780197514e-02  -2.8573378901929406e-02  -1.8778026956233533e-02  -4.3743401105444564e-02  -2.7177255042131566e-02  -1.8290947079297442e-02  -2.6583539979965501e-02  -1.7630440192531759e-02  -2.3549523357111760e-02  -1.6188490043019515e-02  -1.0070000839648009e-01  -1.1957509847747705e-01  -1.2206929642191592e-02  -2.1430564662684393e-02  -1.4619647162679619e-02  -1.8892528557408438e-02  -1.2773151264029196e-02  -1.6233569001784211e-02  -1.0692772317322661e-02  -8.7198093002592778e-02  -1.3367605297815251e-02  -8.3901061654415941e-03  -4.2404011458416900e-02  -1.0369141976798054e-02  -5.9332567213759681e-03  -7.2684496996719243e-03  -3.3163027525566686e-03  -4.0500630378260951e-03  -6.4365924921913674e-04  2.1085658053274919e-03  -4.1910876373121582e-02  -8.3571413845311279e-04  2.1310839990069828e-03  -1.1945835291057803e-01  -1.3857339289734294e-01  -1.0497441767094542e-01  -4.2569699332657647e-02  2.4079940446160740e-03  4.9810663575573519e-03  5.6308063071645381e-03  7.8098407087412985e-03  8.8149569677214747e-03  1.0516389936546392e-02  -8.7993713438926334e-03  4.9620940374165128e-03  -5.2840367650486024e-03  -9.1493709932083892e-03  1.1912323556578305e-02  1.3181732102258420e-02  1.1794160144452896e-02  1.4007819529010599e-02  1.5751690300568423e-02  1.6142401395040754e-02  1.8202802855550305e-02  1.8241586212617969e-02  2.0542548690429964e-02  2.0290457076085407e-02  2.2737894612327409e-02  2.2187155335086417e-02  2.4766869963599183e-02  2.3949543420473007e-02  2.6674400057282534e-02  2.5589251878426322e-02  2.8358321507364521e-02  2.6976825610311450e-02  2.9858778392875589e-02  2.8312353647598227e-02  3.1199894731777950e-02  2.9482418495186583e-02  3.2432630751559756e-02  3.0526123197866597e-02  -6.3907912204582704e-03  -4.2545512271380967e-02  3.3431665696867133e-02  3.1401868606202282e-02  3.4185450722208716e-02  3.2142662467758279e-02  1.3850170802409006e-02  9.2151152305323183e-03  3.4800997902489771e-02  3.2722776167238496e-02  1.6818555979878469e-02  -3.8188101126935568e-02  -1.3308491747204643e-01  -1.5299230746837522e-01  -1.6806016355522876e-01  -1.7947879224766855e-01  -2.0399402317191923e-01  -2.0952726189247034e-01  -2.4971752801715216e-01  -2.4352641615433021e-01  -2.8697385766325595e-01  -2.7453348392066118e-01  -3.2620246918059248e-01  -3.0223937613051349e-01  -3.5222812408506743e-01  -3.2278158215389180e-01  -3.6925314487594069e-01  -3.3696073556268308e-01  -3.7688500844489126e-01  -3.4416594002842793e-01  -3.7760152013458476e-01  -3.4585179203045585e-01  -3.7328463819151281e-01  -3.4376228930958008e-01  -3.6623161686376171e-01  -3.3939580640014333e-01  -3.5762887980542957e-01  -3.3369201516118402e-01  -3.4714553055806879e-01  -3.2539735364171124e-01  -3.1040362402614963e-01  -3.0601951544565908e-01  -3.1878291653023710e-01  -3.0127352661773460e-01  -3.1323386122777552e-01  -2.9653142048208936e-01  -3.0571965660117156e-01  -2.9098693011941007e-01  -2.8839356288643547e-01  -2.8857792440750368e-01  -3.1644504913799881e-01  -2.9868565169120614e-01  -2.8538317624855480e-01  -2.7613941258736963e-01  -2.7217645152985553e-01  -2.7979328871617815e-01  -2.6829601262854857e-01  -2.7412973749183367e-01  -2.6389122066994869e-01  -2.6849046069696875e-01  -2.5895967860017610e-01  -2.5968784278493440e-01  -2.3328981292513143e-01  -3.8705817102117457e-01  -2.6297339584503554e-01  -2.5419478462884310e-01  -2.4954929768514744e-01  -2.4544897304172761e-01  -2.4947655823203688e-01  -2.4158224773942980e-01  -2.4462458874364054e-01  -2.3743457864785100e-01  -4.1891622436512738e-01  -2.3713785767551396e-01  -2.3980259899662029e-01  -2.3331128151839323e-01  -4.0637713691787725e-01  -2.3514139370243201e-01  -2.2895400627141502e-01  -2.2707043950149267e-01  -2.2278043827213656e-01  -2.2453202792155985e-01  -2.1869470773781566e-01  -2.1654858234981011e-01  -2.1289831723216249e-01  -2.1458205156670335e-01  -2.0912976386994528e-01  -2.1038573308172964e-01  -2.0516410912364391e-01  -2.0379149715318903e-01  -2.0011396707469609e-01  -2.0107758563411160e-01  -1.9629421963648211e-01  -1.9695076507831352e-01  -1.9236250402992416e-01  -1.8324422669647275e-01  -3.3026030323447098e-01  -3.8136835314259249e-01  -1.9284444900795050e-01  -1.8838827933334418e-01  -1.8782739244963684e-01  -1.8386816614995666e-01  -1.8418959730774620e-01  -1.7984829284133266e-01  -1.8328717044128784e-01  3.5338754470947462e-02  3.3198136642505753e-02  3.5674493345930439e-02  3.3521484275335307e-02  3.5842830218731594e-02  3.3711433785277328e-02  -2.8512911949722947e-01  -2.7893851367681924e-02  -1.0333232841054894e-02  -1.7991617753663131e-01  -1.7577096872519316e-01  -3.1194278457316005e-01  2.1257307851298743e-02  2.7724423694919027e-02  1.2603841486733306e-02  3.5865052205092923e-02  3.3777939113764456e-02  3.1633436809052361e-02  3.1770323673481933e-02  3.3727558038634933e-02  3.1786315329677989e-02  3.3548555220971235e-02  3.1692218198721540e-02  3.3278447889618645e-02  3.1523064915900068e-02  3.2903377643183018e-02  3.1246984369785482e-02  3.2446311136901169e-02  3.0888828123658545e-02  3.1919580734053474e-02  3.0431730624684020e-02  3.1295919168488978e-02  2.9892904103191228e-02  3.0590381723880615e-02  2.9263865220498890e-02  2.9796466856526420e-02  2.8554813739044369e-02  2.8945809224910544e-02  2.7775736582809272e-02  2.8036594552520572e-02  2.6912178995578510e-02  2.7062157120078704e-02  2.5994528895416234e-02  2.5990781299867843e-02  2.4988950097105347e-02  2.4929651155362668e-02  2.3942108176758303e-02  3.0557471103011678e-02  -1.9881093957120824e-01  -2.5247974237553183e-01  -1.7554464663347247e-01  -1.7152492786361423e-01  -1.7168201693619770e-01  -1.6738820652427022e-01  -1.6756973525376351e-01  -1.6326506206106961e-01  -1.6306319621276597e-01  -1.5899260964532602e-01  -1.5854879027012747e-01  -1.5457692179890767e-01  -1.5492999772390204e-01  -1.5057607660563338e-01  -1.5026557257304402e-01  -1.4620948