<?xml version="1.0"?>
<VTKFile type="UnstructuredGrid"  version="0.1"  >
<UnstructuredGrid>
<Piece  NumberOfPoints="2886" NumberOfCells="5412">
<Points>
<DataArray  type="Float64"  NumberOfComponents="3"  format="ascii">0 0.1 0  0.98 0.1 0  1 0.1 0  1 0 0  1.5 0 0  3 0 0  3 0.3 0  0 0.3 0  0.01975375321854102 0.1 0  0.03918897458218897 0.1 0  0.05831079002627837 0.1 0  0.07712425666319796 0.1 0  0.0956343475259058 0.1 0  0.1138459546796227 0.1 0  0.1317638870668193 0.1 0  0.1493928840275937 0.1 0  0.1667376092280033 0.1 0  0.1838026357802664 0.1 0  0.2005924801287244 0.1 0  0.2171115811543574 0.1 0  0.2333643037107681 0.1 0  0.2493549444060462 0.1 0  0.2650877293306821 0.1 0  0.2805668058011438 0.1 0  0.2957962848620976 0.1 0  0.3107801766802674 0.1 0  0.3255224447361181 0.1 0  0.3400269848175519 0.1 0  0.3542976327080778 0.1 0  0.3683381609158136 0.1 0  0.3821522744564845 0.1 0  0.3957436316838916 0.1 0  0.4091158196437086 0.1 0  0.4222723742184605 0.1 0  0.4352167733293057 0.1 0  0.4479524348643424 0.1 0  0.4604827295467524 0.1 0  0.4728109659990664 0.1 0  0.4849404035409129 0.1 0  0.4968742471455402 0.1 0  0.508615651843175 0.1 0  0.520167721130924 0.1 0  0.5315335063628542 0.1 0  0.5427160117228604 0.1 0  0.5537181940261912 0.1 0  0.564542961924507 0.1 0  0.575193173270606 0.1 0  0.5856716438765114 0.1 0  0.5959811458006617 0.1 0  0.6061243988680743 0.1 0  0.6161040893285659 0.1 0  0.6259228503970299 0.1 0  0.6355832809287655 0.1 0  0.6450879281079505 0.1 0  0.6544393102991295 0.1 0  0.663639896558931 0.1 0  0.6726921201956305 0.1 0  0.6815983691630338 0.1 0  0.6903610031396646 0.1 0  0.6989823343332418 0.1 0  0.7074646404270378 0.1 0  0.7158101645005117 0.1 0  0.7240211149852543 0.1 0  0.7320996585612525 0.1 0  0.7400479319727645 0.1 0  0.7478680336617921 0.1 0  0.755562036504958 0.1 0  0.7631319665092091 0.1 0  0.7705798279317605 0.1 0  0.777907588066146 0.1 0  0.7851171851013118 0.1 0  0.7922105226004981 0.1 0  0.7991894774550319 0.1 0  0.8060558928136696 0.1 0  0.812811583201334 0.1 0  0.8194583352091183 0.1 0  0.8259979035038147 0.1 0  0.8324320194413813 0.1 0  0.8387623808293405 0.1 0  0.8449906627004957 0.1 0  0.8511185094880469 0.1 0  0.8571475426008311 0.1 0  0.8630793533568246 0.1 0  0.8689155114558531 0.1 0  0.8746575581239063 0.1 0  0.8803070109173519 0.1 0  0.885865363938836 0.1 0  0.8913340851680313 0.1 0  0.8967146206523592 0.1 0  0.9020083930695622 0.1 0  0.9072167995950768 0.1 0  0.9123412183131177 0.1 0  0.9173830029719022 0.1 0  0.9223434865647732 0.1 0  0.9272239785872722 0.1 0  0.9320257720706087 0.1 0  0.9367501330378739 0.1 0  0.9413983102716995 0.1 0  0.9459715351562933 0.1 0  0.9504710127113115 0.1 0  0.9548979346500661 0.1 0  0.9592534708344373 0.1 0  0.9635387708980176 0.1 0  0.9677549682252325 0.1 0  0.971903177251235 0.1 0  0.9759844952956497 0.1 0  0.9840000000000086 0.1 0  0.987999999999974 0.1 0  0.9919999999999393 0.1 0  0.9959999999999913 0.1 0  1 0.09591793123533533 0  1 0.09133596463859224 0  1 0.08619288104391448 0  1 0.08041996484521211 0  1 0.07394008421771697 0  1 0.06666666567302955 0  1 0.05850252932209174 0  1 0.04933859630113544 0  1 0.03905242821848202 0  1 0.02750659386753798 0  1 0.01454683679239736 0  1.015625 0 0  1.03125 0 0  1.046875 0 0  1.0625 0 0  1.078125 0 0  1.09375 0 0  1.109375 0 0  1.125 0 0  1.140625 0 0  1.15625 0 0  1.171875 0 0  1.1875 0 0  1.203125 0 0  1.21875 0 0  1.234375 0 0  1.25 0 0  1.265625 0 0  1.28125 0 0  1.296875 0 0  1.3125 0 0  1.328125 0 0  1.34375 0 0  1.359375 0 0  1.375 0 0  1.390625 0 0  1.40625 0 0  1.421875 0 0  1.4375 0 0  1.453125 0 0  1.46875 0 0  1.484375 0 0  1.515920751924515 0 0  1.531989369316721 0 0  1.54820720925872 0 0  1.564575665560501 0 0  1.581096138674279 0 0  1.597770029901263 0 0  1.614598783332311 0 0  1.631583831055205 0 0  1.64872661129721 0 0  1.666028606716533 0 0  1.683491276608443 0 0  1.701116134125304 0 0  1.718904673324128 0 0  1.736858414799339 0 0  1.754978895814663 0 0  1.773267661782904 0 0  1.791726281103402 0 0  1.810356325314689 0 0  1.8291593848892 0 0  1.848137076690385 0 0  1.867291007717254 0 0  1.886622833871288 0 0  1.90613418642363 0 0  1.925826753299799 0 0  1.945702199101513 0 0  1.96576223584749 0 0  1.986008569283268 0 0  2.006442931928877 0 0  2.02706707547783 0 0  2.047882750887917 0 0  2.06889175187935 0 0  2.090095860038271 0 0  2.111496891648636 0 0  2.133096679109554 0 0  2.154897066851056 0 0  2.176899916687499 0 0  2.199107102752146 0 0  2.22152053937028 0 0  2.244142122958061 0 0  2.266973806444078 0 0  2.290017523268154 0 0  2.313275249499252 0 0  2.336748971745516 0 0  2.360440702338606 0 0  2.384352453384031 0 0  2.408486280477412 0 0  2.432844240041185 0 0  2.457428414757088 0 0  2.482240901796653 0 0  2.507283830121838 0 0  2.532559332080812 0 0  2.558069568787417 0 0  2.583816724966441 0 0  2.60980299606584 0 0  2.636030600971886 0 0  2.662501790984011 0 0  2.689218818279327 0 0  2.716183964547616 0 0  2.743399548861297 0 0  2.77086788244719 0 0  2.798591312896326 0 0  2.826572223178268 0 0  2.854812990138617 0 0  2.883316031690714 0 0  2.912083780657189 0 0  2.941118704633482 0 0  2.970423276998917 0 0  3 0.02999999999994495 0  3 0.05999999999987042 0  3 0.089999999999783 0  3 0.119999999999701 0  3 0.149999999999619 0  3 0.179999999999692 0  3 0.2099999999997737 0  3 0.2399999999998511 0  3 0.2699999999999185 0  2.970138294777171 0.3 0  2.940375666438236 0.3 0  2.910711782853056 0.3 0  2.881146331305122 0.3 0  2.851678975030285 0.3 0  2.822309388626621 0.3 0  2.793037250095074 0.3 0  2.76386223529133 0.3 0  2.734784017903872 0.3 0  2.705802289276642 0.3 0  2.676916713794697 0.3 0  2.648126987654635 0.3 0  2.619432780406184 0.3 0  2.590833779385199 0.3 0  2.562329669847737 0.3 0  2.533920134950189 0.3 0  2.505604855727852 0.3 0  2.477383539822502 0.3 0  2.449255847639465 0.3 0  2.421221492569094 0.3 0  2.393280152486815 0.3 0  2.36543151914496 0.3 0  2.337675285481809 0.3 0  2.310011142385583 0.3 0  2.282438797441587 0.3 0  2.254957931061538 0.3 0  2.227568248063605 0.3 0  2.200269436651085 0.3 0  2.173061204949961 0.3 0  2.145943251515011 0.3 0  2.118915272469994 0.3 0  2.091976978084957 0.3 0  2.065128060700849 0.3 0  2.038368218849433 0.3 0  2.01169717777258 0.3 0  1.985114624111908 0.3 0  1.958620267850966 0.3 0  1.93221382054972 0.3 0  1.905894991850698 0.3 0  1.879663489459713 0.3 0  1.853519019126419 0.3 0  1.827461291053897 0.3 0  1.801490031354372 0.3 0  1.775604937580312 0.3 0  1.74980572560258 0.3 0  1.724092118631866 0.3 0  1.698463829173586 0.3 0  1.672920575782554 0.3 0  1.647462076974085 0.3 0  1.622088043536933 0.3 0  1.5967981978949 0.3 0  1.571592267767068 0.3 0  1.546469970305736 0.3 0  1.521431023814044 0.3 0  1.496475156230927 0.3 0  1.471602093687753 0.3 0  1.446811560490646 0.3 0  1.422103279101731 0.3 0  1.397476971708191 0.3 0  1.37293238939876 0.3 0  1.348469231419202 0.3 0  1.324087248732772 0.3 0  1.299786165921677 0.3 0  1.275565710847046 0.3 0  1.251425617644257 0.3 0  1.227365618676339 0.3 0  1.203385446174014 0.3 0  1.179484853067473 0.3 0  1.155663548773374 0.3 0  1.131921292279077 0.3 0  1.108257802159295 0.3 0  1.084672829009693 0.3 0  1.061166115303374 0.3 0  1.037737392995421 0.3 0  1.01438640299116 0.3 0  0.991112899770314 0.3 0  0.9679166155523955 0.3 0  0.944797284182564 0.3 0  0.921754678526042 0.3 0  0.8987885143602501 0.3 0  0.8758985548820624 0.3 0  0.8530845484099929 0.3 0  0.8303462351786988 0.3 0  0.8076833651172373 0.3 0  0.7850956864865304 0.3 0  0.7625829601354557 0.3 0  0.7401449314598274 0.3 0  0.717781337993959 0.3 0  0.6954919649675473 0.3 0  0.6732765357561226 0.3 0  0.6511348120768439 0.3 0  0.6290665642016573 0.3 0  0.6070715355430467 0.3 0  0.5851494825775325 0.3 0  0.5633001690203812 0.3 0  0.5415233562273221 0.3 0  0.5198187909431873 0.3 0  0.4981862401387795 0.3 0  0.4766254686134248 0.3 0  0.4551362360485234 0.3 0  0.4337182975262159 0.3 0  0.4123714223228037 0.3 0  0.3910953802377493 0.3 0  0.3698899313205595 0.3 0  0.3487548463710963 0.3 0  0.3276898864081783 0.3 0  0.3066948129116018 0.3 0  0.2857694003037476 0.3 0  0.2649134227095047 0.3 0  0.2441266417321288 0.3 0  0.2234088223399122 0.3 0  0.2027597568977288 0.3 0  0.1821792020676698 0.3 0  0.1616669305402443 0.3 0  0.1412227158799362 0.3 0  0.12084633013886 0.3 0  0.1005375673448281 0.3 0  0.08029618164595353 0.3 0  0.06012194778526769 0.3 0  0.04001466495039718 0.3 0  0.01997408913631205 0.3 0  0 0.2800000000000553 0  0 0.2600000000001105 0  0 0.2400000000001658 0  0 0.2200000000002211 0  0 0.2000000000002764 0  0 0.1800000000002244 0  0 0.1600000000001691 0  0 0.140000000000115 0  0 0.1200000000000564 0  1.13346801534201 0.01255848438672509 0  1.003577645172735 0.09351054173913405 0  0.9777559943702486 0.1034978156913738 0  0.9524533750752109 0.1040889939962738 0  0.9296242411226409 0.1041520033606139 0  0.9046110503652111 0.104409422380137 0  0.8777709649694228 0.1053360318797398 0  0.8483859145648608 0.1061007868330701 0  0.8162363822948977 0.1052777104363292 0  0.7893110024210437 0.1060761643971561 0  0.7587949382612539 0.1067265405088633 0  0.7280603867732535 0.1069398153264939 0  0.6947001989413015 0.1075609887579097 0  0.6590363283767549 0.1076715322596598 0  0.6210028614493155 0.1072970410408442 0  1.1953125 0.01353164693413185 0  1.258193991486058 0.01269648635163345 0  1.3201967268638 0.01407907077719561 0  1.383538555392096 0.01434101079053473 0  1.445312500000001 0.01303671693628424 0  1.508925448095738 0.01398525724792267 0  0.9939176689634008 0.1034638089837981 0  1.120967497222226 0.2796788492172345 0  1.572835902117391 0.01424132418857359 0  1.637573277451887 0.01212536916586023 0  1.709730776795181 0.01466855431023635 0  1.005631976950563 0.07074019818158772 0  1.784944696816299 0.01454708406461822 0  0.5805605730631225 0.1101465090472147 0  1.855621181165637 0.01550931272897607 0  0.5366111276616774 0.1096761308243709 0  1.935200147913231 0.01760344159641829 0  1.214922267975168 0.2799787705802257 0  1.31178773425331 0.2792
[...]
<PointData  Scalars="pressure"> 
<DataArray  type="Float64"  Name="pressure"  format="ascii">-2.2640062323325130e-01  -6.0271665839135535e-01  -3.9047316972183560e-01  -3.6467679154323218e-01  -1.6354900257798197e-01  0.0000000000000000e+00  0.0000000000000000e+00  -2.2638169142298800e-01  -2.3232674200594960e-01  -2.3815749831043603e-01  -2.4389450989314260e-01  -2.4953932125236752e-01  -2.5509348078940164e-01  -2.6055849959703836e-01  -2.6593579383959132e-01  -2.7122693094761829e-01  -2.7643330487938034e-01  -2.8155633080722303e-01  -2.8659753835225688e-01  -2.9155830676577144e-01  -2.9643996743203288e-01  -3.0124405193166615e-01  -3.0597194533147914e-01  -3.1062478463777954e-01  -3.1520434444698803e-01  -3.1971181215251926e-01  -3.2414856841045309e-01  -3.2851623117731321e-01  -3.3281607536590341e-01  -3.3704914261800339e-01  -3.4121746842705730e-01  -3.4532207783758340e-01  -3.4936481770354288e-01  -3.5334709721376090e-01  -3.5726971689995002e-01  -3.6113485411268043e-01  -3.6494411155372375e-01  -3.6869876656430889e-01  -3.7240044112506726e-01  -3.7605100726519519e-01  -3.7965183601369207e-01  -3.8320495388597775e-01  -3.8671174532843627e-01  -3.9017452539001601e-01  -3.9359535168118531e-01  -3.9697345622179114e-01  -4.0031441432440451e-01  -4.0361908553328740e-01  -4.0688766010599708e-01  -4.1012517002419635e-01  -4.1333337203019938e-01  -4.1650959112954117e-01  -4.1966299455224931e-01  -4.2279245550911781e-01  -4.2590052921764199e-01  -4.2898989742481475e-01  -4.3206354504594147e-01  -4.3512364422502336e-01  -4.3817324985241346e-01  -4.4121547297840596e-01  -4.4425244400112707e-01  -4.4728636800618604e-01  -4.5032326660066274e-01  -4.5336308057834601e-01  -4.5641031613895072e-01  -4.5946759704584511e-01  -4.6253861634322002e-01  -4.6563156757183854e-01  -4.6874115060183097e-01  -4.7187535096099842e-01  -4.7504184757630091e-01  -4.7823853764751667e-01  -4.8147235105881708e-01  -4.8475200318259076e-01  -4.8807388573274219e-01  -4.9144681828968528e-01  -4.9487568592388864e-01  -4.9836546957806666e-01  -5.0192968835207974e-01  -5.0556278412702182e-01  -5.0927992420659340e-01  -5.1306835075195267e-01  -5.1696717547228321e-01  -5.2096842378197761e-01  -5.2507657691784748e-01  -5.2931138643582487e-01  -5.3367796686668789e-01  -5.3819057255419345e-01  -5.4285941345581812e-01  -5.4771615478707592e-01  -5.5277072487530687e-01  -5.5803775906373509e-01  -5.6355737349903812e-01  -5.6935866008064351e-01  -5.7548078041309891e-01  -5.8197260436295939e-01  -5.8889363662249627e-01  -5.9632197401464915e-01  -6.0435941131598769e-01  -6.1314621589134766e-01  -6.2288342575677491e-01  -6.3379045938041934e-01  -6.4641070883243656e-01  -6.6155194729549693e-01  -6.7664225342129403e-01  -7.2355843459495250e-01  -9.9380102822392380e-01  -1.0698517053432641e+00  -9.4748820250405763e-01  -8.6158342023514345e-01  -3.7153660891141149e-01  -3.7364772676402053e-01  -3.6912074561012687e-01  -3.6635775286886035e-01  -3.6465163706092696e-01  -3.6361865530401744e-01  -3.6308785204221611e-01  -3.6293366067705568e-01  -3.6313226465846521e-01  -3.6368147380102650e-01  -3.6441825278330814e-01  -3.6501272380776767e-01  -3.6588278966027127e-01  -3.6676962247337236e-01  -3.6773428084397120e-01  -3.6884412633321856e-01  -3.7005765763186838e-01  -3.7127624190712316e-01  -3.7245261997866619e-01  -3.7348140090998155e-01  -3.7421435423416194e-01  -3.7450082995900480e-01  -3.7417759513089910e-01  -3.7303886967120642e-01  -3.7089119809879262e-01  -3.6757111195046288e-01  -3.6290299900213968e-01  -3.5673554843496169e-01  -3.4899510060692895e-01  -3.3967442114355390e-01  -3.2870236167161654e-01  -3.1635371590806932e-01  -3.0276586220555612e-01  -2.8814141185534720e-01  -2.7287701045605567e-01  -2.5719330891474118e-01  -2.4160747505152996e-01  -2.2626918950668942e-01  -2.1158119549897744e-01  -1.9779774939891823e-01  -1.8510775206261298e-01  -1.7366994291901552e-01  -1.5465494652973169e-01  -1.4711344377910612e-01  -1.4084626340380638e-01  -1.3589187989446846e-01  -1.3206077717890108e-01  -1.2927147825942367e-01  -1.2738775786397119e-01  -1.2622308285077150e-01  -1.2575825297960697e-01  -1.2574084132975058e-01  -1.2608964483717713e-01  -1.2667248929668054e-01  -1.2738254978939664e-01  -1.2813935616263722e-01  -1.2885583217424199e-01  -1.2947012481996650e-01  -1.2994702446838094e-01  -1.3023698517938082e-01  -1.3029316358490481e-01  -1.3017233185793295e-01  -1.2977064554808268e-01  -1.2913697537318644e-01  -1.2827300129548005e-01  -1.2716212426997087e-01  -1.2582682356341471e-01  -1.2422792055006934e-01  -1.2250169585308764e-01  -1.2051786354217479e-01  -1.1834957327174060e-01  -1.1599164179282828e-01  -1.1344555414032874e-01  -1.1073730234796711e-01  -1.0789351360968318e-01  -1.0492945283898432e-01  -1.0183811197629904e-01  -9.8660289738671497e-02  -9.5399844036274925e-02  -9.2086106033780299e-02  -8.8727269137829301e-02  -8.5334147741022034e-02  -8.1919745455197007e-02  -7.8490898529043521e-02  -7.5045250240912825e-02  -7.1600077112564095e-02  -6.8139314174494633e-02  -6.4666583922908569e-02  -6.1215710037796044e-02  -5.7771857373749874e-02  -5.4300887625856324e-02  -5.0923679520755390e-02  -4.7522325942059913e-02  -4.4250614264570401e-02  -4.0963318283852405e-02  -3.7829517783082058e-02  -3.4761492208296205e-02  -3.1735923296691060e-02  -2.8860644417055915e-02  -2.5981541830565918e-02  -2.3230656640319265e-02  -2.0528656697724201e-02  -1.7879959536597868e-02  -1.5222431123500909e-02  -1.2605600148276913e-02  -1.0032350487204682e-02  -7.5362768764048599e-03  -5.0329473222715023e-03  -2.4987971624788226e-03  0.0000000000000000e+00  0.0000000000000000e+00  0.0000000000000000e+00  0.0000000000000000e+00  0.0000000000000000e+00  0.0000000000000000e+00  0.0000000000000000e+00  0.0000000000000000e+00  0.0000000000000000e+00  -2.3027412224319015e-03  -4.5976144819701859e-03  -7.0538893005742641e-03  -9.5081952457489165e-03  -1.1979523343531395e-02  -1.4476304489850404e-02  -1.7002945222143271e-02  -1.9557931854671317e-02  -2.2129846667693007e-02  -2.4719511624932806e-02  -2.7320251921069679e-02  -2.9936860836213938e-02  -3.2571413055302867e-02  -3.5232338279016437e-02  -3.7931722473768546e-02  -4.0698231019119360e-02  -4.3550403562241269e-02  -4.6507732875349025e-02  -4.9593097182986857e-02  -5.2828358118425137e-02  -5.6229443645391432e-02  -5.9805985322179102e-02  -6.3568414166430803e-02  -6.7522227237403198e-02  -7.1675641403947901e-02  -7.6022251858375925e-02  -8.0584415347027094e-02  -8.5346146775373680e-02  -9.0323290430649919e-02  -9.5519090128147952e-02  -1.0092635975044570e-01  -1.0655159093516925e-01  -1.1239006883146826e-01  -1.1833215681326012e-01  -1.2445524363484699e-01  -1.3067748867679660e-01  -1.3694189821378505e-01  -1.4321185924109534e-01  -1.4944538002549285e-01  -1.5566089443672912e-01  -1.6175629790654136e-01  -1.6780382059961804e-01  -1.7377368715785915e-01  -1.7968391848393953e-01  -1.8555547908084630e-01  -1.9141136285193838e-01  -1.9726021574165475e-01  -2.0310930849908831e-01  -2.0901147644137671e-01  -2.1491090520740197e-01  -2.2081660433196185e-01  -2.2671081957528338e-01  -2.3256649862956300e-01  -2.3837232235844300e-01  -2.4411474753359758e-01  -2.4979480934361040e-01  -2.5544046076040894e-01  -2.6110803958682371e-01  -2.6686809921979959e-01  -2.7281033247558673e-01  -2.7904221070638968e-01  -2.8567524610243145e-01  -2.9281441464538616e-01  -3.0053529873448576e-01  -3.0894413455606157e-01  -3.1806499692941670e-01  -3.2794464316087801e-01  -3.3855746531614811e-01  -3.4991809178052397e-01  -3.6185200547733593e-01  -3.7430882067746069e-01  -3.8700029202702840e-01  -3.9947045029539269e-01  -4.1179796525980239e-01  -4.2312770186912474e-01  -4.3311384659405061e-01  -4.4159124458378929e-01  -4.4817711443007663e-01  -4.5303030806888356e-01  -4.5609535278094920e-01  -4.5720346812961110e-01  -4.5690572273347624e-01  -4.5527672291077775e-01  -4.5276582112028202e-01  -4.4937038813847358e-01  -4.4522920476613215e-01  -4.4061361527987886e-01  -4.3557081554546195e-01  -4.3017397153872050e-01  -4.2453558291911792e-01  -4.1868202783696840e-01  -4.1270280409590326e-01  -4.0660922554283219e-01  -4.0041756971309589e-01  -3.9417817352148660e-01  -3.8789590924339823e-01  -3.8157837140294004e-01  -3.7524026462459592e-01  -3.6889505792656285e-01  -3.6254669628161812e-01  -3.5619841252596962e-01  -3.4985613787379888e-01  -3.4352116739243055e-01  -3.3719921442685968e-01  -3.3088961957001495e-01  -3.2459495719770587e-01  -3.1831649214006841e-01  -3.1205469926384299e-01  -3.0581080804392563e-01  -2.9958512648604280e-01  -2.9337798034065227e-01  -2.8718981719060738e-01  -2.8102087598703329e-01  -2.7487131304711448e-01  -2.6874123542234868e-01  -2.6263084383765900e-01  -2.5654005110671008e-01  -2.5046894916086182e-01  -2.4441757744094897e-01  -2.3838589667429730e-01  -2.3237394202517886e-01  -2.2638176683617742e-01  -2.2638256099856277e-01  -2.2638448626895499e-01  -2.2638749915599715e-01  -2.2639115413382199e-01  -2.2639481287098268e-01  -2.2639783207289199e-01  -2.2639977024403263e-01  -2.2640056166897343e-01  -3.7248829480423440e-01  -3.7217820918562039e-01  -7.3381778534849462e-01  -6.1916093575604669e-01  -5.7944016143582511e-01  -5.5065521279623986e-01  -5.2771780892804887e-01  -5.0784009797438878e-01  -4.8994580066039395e-01  -4.7703809483378273e-01  -4.6393740719766963e-01  -4.5189947248199702e-01  -4.3974703808628579e-01  -4.2747266185500232e-01  -4.1493553848959058e-01  -3.7307072890264664e-01  -3.5955536705804253e-01  -3.2315103253911998e-01  -2.6533073994294765e-01  -2.0583849679185487e-01  -1.5975179837330794e-01  -6.8542507342592740e-01  -3.6662375374071016e-01  -1.3489102024605848e-01  -1.2665541770067931e-01  -1.2732843309773095e-01  -3.6433023782993257e-01  -1.2977960175790043e-01  -4.0202208217627444e-01  -1.2982953283855692e-01  -3.8829317149561610e-01  -1.2623256932524637e-01  -3.2212284629628840e-01  -2.8835083159930897e-01  -1.1880975169834496e-01  -2.6359276268798859e-01  -3.7422882941458152e-01  -2.3529756187754508e-01  -1.0923612490300336e-01  -3.5920603542749641e-01  -3.6893718903750072e-01  -9.6846867556339686e-02  -2.0602439397723904e-01  -4.0588742379491444e-01  -3.4370525196625518e-01  -8.3501507797598046e-02  -1.7088991958963110e-01  -3.2614570014156308e-01  -1.5302929113418642e-01  -6.9652052222381827e-02  -1.3359674778450198e-01  -3.0882183316051354e-01  -4.3687182899315685e-01  -5.6229491207261270e-02  -1.1532875321113294e-01  -4.5424874112168262e-01  -9.7971477336772056e-02  -4.2640290170963692e-02  -4.5605713391351216e-01  -2.8860195507043573e-01  -2.7457761605506031e-01  -1.8850194560002437e-01  -3.3249024006934934e-02  -2.4299681989375068e-02  -8.2971482892276335e-02  -4.4743346089270897e-01  -6.5464289477119311e-02  -6.5528840489268469e-01  -4.2773074758243906e-01  -5.4654591545442194e-02  -2.5712104625996141e-01  -4.0968772247487595e-01  -1.6543928358754307e-02  -4.2288313954626240e-02  -3.9091764050771660e-01  -3.6555456367747324e-01  -3.4001830121312082e-02  -3.3404315491430769e-01  -2.6110788690999084e-02  -3.1512918549177310e-01  -2.9637544048266878e-01  -1.8368779721522246e-02  -2.6479187070707305e-01  -2.2428884234346274e-03  -2.3197006651618357e-01  -3.6350510608081976e-01  -1.1012949223841800e-02  -8.6637930195133141e-03  -2.4699227690101400e-01  -3.6707557333430485e-01  -3.6664161742229806e-01  -3.4315729395014549e-01  -4.3800775618075272e-01  -3.7889371541707578e-01  -3.5335554711100742e-01  -2.4666541683284779e-01  -2.2419171168226867e-01  -2.5203151830202258e-01  -2.7516871154323008e-01  -3.0369142999409265e-01  -2.9854753348363677e-01  -7.4059075226854551e-02  -3.1774695577982121e-01  -2.8414261944934643e-01  -4.8186519761107598e-02  -4.9315429073913709e-02  -3.3549543877110694e-01  -6.2552691053037845e-02  -7.6678429195796302e-02  -3.5110680827133084e-01  -9.0252080599292725e-02  -1.0325117828385834e-01  -1.1482639270515424e-01  -1.2289417618103622e-01  -1.4503334981520444e-01  -3.6682598065750777e-01  -1.2853997501885425e-01  -1.3017674591775277e-01  -3.8141623167160849e-01  -1.2869425560952624e-01  -1.2640351285111914e-01  -1.2905778454029249e-01  -1.9284239591421191e-03  -3.9566606363107637e-01  -4.0804916488795057e-01  -2.3163461653200421e-01  -4.2091325284740094e-01  -4.3362959571949916e-01  -4.4582024224644401e-01  -4.5812420091163963e-01  -4.7046742283334486e-01  -4.8308347895818510e-01  -3.7383240385787980e-01  -5.0032501901087056e-01  -5.1920050032109910e-01  -5.4089134934484029e-01  -3.6891551236886316e-01  -5.6720296189457242e-01  -2.9669920358265101e-01  -3.4350847479290653e-01  -2.3728055482653373e-01  -1.8058008174900111e-01  -6.0137915214460047e-01  -9.3486888728416651e-01  -2.1889142511604784e-03  -2.3212317016887088e-01  -5.8652489075599213e-03  -3.6511729754921429e-01  -2.3138502960986165e-01  -1.9616210589318926e-03  -2.3547764177875474e-01  -3.6581006338507044e-01  -3.6570986510848014e-01  -3.6643971348670223e-01  -3.6565854247987817e-01  -3.6639656432342782e-01  -3.6568308969255831e-01  -3.6655413697806960e-01  -3.6570661580821551e-01  -3.6664591228280491e-01  -3.6554693629950530e-01  -3.6651888125996807e-01  -3.6512397363731219e-01  -3.6633986523458878e-01  -3.6473349535211153e-01  -3.6631252730500835e-01  -3.6497581890621505e-01  -3.6694262930894705e-01  -3.6627575859423944e-01  -3.6851764207025517e-01  -3.6894577686332491e-01  -3.7064172892772751e-01  -3.6735539634991538e-01  -3.7080523046897346e-01  -3.7236017306252900e-01  -3.7117158877452877e-01  -3.7105918108551905e-01  -3.7312518713667409e-01  -3.7382100925106931e-01  -3.7525284127965264e-01  -3.7474704912183732e-01  -3.7687642831513690e-01  -3.7462404828090862e-01  -3.7756299906972779e-01  -3.7385174297320739e-01  -3.7713610463208669e-01  -3.7043346759624285e-01  -3.7460781534492460e-01  -3.6667481471140839e-01  -3.7028284676450474e-01  -3.6036642785816519e-01  -3.6365078951448049e-01  -3.5203655312475179e-01  -3.5469964092546397e-01  -3.4187853119006828e-01  -3.4357981303970320e-01  -3.3033846885001600e-01  -3.3056731670087203e-01  -3.1751632709028210e-01  -3.1619707662863417e-01  -3.0416860299965909e-01  -3.0088287949384090e-01  -2.9072024735121971e-01  -2.8540241901255564e-01  -3.7567757904699778e-01  -3.7866289615913706e-01  -2.7748691299659672e-01  -2.7022446969191088e-01  -2.6515236050472996e-01  -2.5687816980332789e-01  -2.5401176496336980e-01  -2.4414048251359238e-01  -2.4419295489008180e-01  -2.3295284628752325e-01  -3.7263355107275264e-01  -2.3563714545007897e-01  -2.2325496313007812e-01  -2.2921005998745023e-01  -2.1527096849857064e-01  -2.2199285021014870e-01  -2.0835511235136225e-01  -3.8263808551078216e-01  -3.8958761733002573e-01  -3.6354149509469696e-01  -2.1677555443024707e-01  -2.0274802103443942e-01  -2.1225836291641825e-01  -1.9820905456275209e-01  -2.0830881471557808e-01  -1.9448561517921351e-01  -3.7435907949847635e-01  -2.0476910337075802e-01  -1.9132123125897371e-01  -3.6938167945953676e-01  -2.0147010941917290e-01  -1.8856785103341631e-01  -1.9829880347024767e-01  -1.8600171730009513e-01  -1.9498080932324829e-01  -1.8360310946473782e-01  -3.6782471294975155e-01  -3.5490110948409109e-01  -1.9181714206978098e-01  -1.8114842679988105e-01  -3.9155904773426248e-01  -4.0107718057720254e-01  -3.8419092089121804e-01  -3.2722758553248571e-01  -1.8852105980694459e-01  -1.7843560482495896e-01  -1.8527657694102548e-01  -1.7570366408296584e-01  -1.8176946151018744e-01  -1.7303719458716746e-01  -1.9305417362422256e-01  -1.6868022394439017e-01  -1.7933284219147719e-01  -2.1981962894483176e-01  -1.7811112490992709e-01  -1.7011983627567265e-01  -1.6329515515227136e-01  -1.6110925342065896e-01  -1.6692303719972004e-01  -1.5866287258875097e-01  -1.6342109918343281e-01  -1.5583895848477231e-01  -1.5976788939723555e-01  -1.5282886733764442e-01  -1.5590489676465261e-01  -1.4947661944845222e-01  -1.5179122666720185e-01  -1.4595119677172549e-01  -1.4757069422457161e-01  -1.4213749364715328e-01  -1.4306723815293182e-01  -1.3805622721245142e-01  -1.3845264064540744e-01  -1.3386061311830588e-01  -1.3369277329898474e-01  -1.2959894535374217e-01  -1.2892996644516258e-01  -1.2518388765484545e-01  -2.6094796255111102e-01  -2.9311926319235421e-01  -1.2404231360025714e-01  -1.2075272196323790e-01  -1.1912493619010735e-01  -1.1619707466268495e-01  -3.7814308000957830e-01  -3.4207110411712516e-01  -1.1419974927335781e-01  -1.1169489468605526e-01  -3.7126535178047354e-01  -2.6202042312969487e-01  -4.0048467279363065e-01  -4.1246032401097377e-01  -4.1540457898204647e-01  -4.2764910385832527e-01  -4.3516975808135605e-01  -4.4483887051487797e-01  -4.5905706965654680e-01  -4.6387588922369116e-01  -4.8117440884478319e-01  -4.8167201133946053e-01  -5.0244017947288988e-01  -4.9724507344002694e-01  -5.1829746991183090e-01  -5.0891833407854636e-01  -5.2845795366222004e-01  -5.1679767027279244e-01  -5.3336578356181652e-01  -5.2079583760644499e-01  -5.3438606724506932e-01  -5.2176058090733535e-01  -5.3260789381337037e-01  -5.2059172954292832e-01  -5.2920055598064353e-01  -5.1805983010024970e-01  -5.2480285183574127e-01  -5.1468991831280764e-01  -5.1928985703746744e-01  -5.1000341671004001e-01  -5.0476114091455215e-01  -5.0152276055859868e-01  -5.0581310816722647e-01  -4.9797661608598448e-01  -5.0189132836354011e-01  -4.9431860327206806e-01  -4.9706576371141864e-01  -4.9026589983586349e-01  -4.9639019850842825e-01  -4.9525751711436927e-01  -5.0984954501864821e-01  -4.9241754277341987e-01  -4.8607680652024043e-01  -4.8330282985887790e-01  -4.7976070391086295e-01  -4.8181989615974824e-01  -4.7614293411489717e-01  -4.7747833860882688e-01  -4.7228720707358007e-01  -4.7313554622458126e-01  -4.6820939059622202e-01  -4.7331169236618720e-01  -4.4390805633732494e-01  -5.2931336046554822e-01  -4.6886316658998134e-01  -4.6413066620467530e-01  -4.6327560401587470e-01  -4.5941468978207944e-01  -4.6004051471036900e-01  -4.5562388487084743e-01  -4.5586665521962216e-01  -4.5172570017328451e-01  -5.4935332168612983e-01  -4.5470577234591986e-01  -4.5171808011789838e-01  -4.4783947564449844e-01  -5.4583175631077907e-01  -4.4769907935023179e-01  -4.4384565693480982e-01  -4.4417947591220325e-01  -4.3998345857983867e-01  -4.3975524747204564e-01  -4.3591358707349503e-01  -4.3601358393158579e-01  -4.3207264158357050e-01  -4.3184759742810253e-01  -4.2810121015579222e-01  -4.2774726534961316e-01  -4.2400592815209320e-01  -4.2435558236533871e-01  -4.2034354106529448e-01  -4.1985791247692705e-01  -4.1628775253406763e-01  -4.1574680555838728e-01  -4.1221458867549238e-01  -4.3519609071714294e-01  -5.0957046200789147e-01  -5.3474685735024530e-01  -4.1169592949662698e-01  -4.0815373405561017e-01  -4.0866709728649725e-01  -4.0449751603220646e-01  -4.0392543233458489e-01  -4.0031586045859591e-01  -4.0500912546921897e-01  -1.0936172105183897e-01  -1.0720321850134042e-01  -1.0465210280323928e-01  -1.0274503877529818e-01  -9.9982256348200196e-02  -9.8327623919203341e-02  -4.8304688442690208e-01  -2.2906178559006657e-01  -3.6500181580692803e-01  -3.9965533652556745e-01  -3.9614630708663928e-01  -4.9869679862934879e-01  -1.4270006576544250e-01  -1.2584636537767493e-01  -1.5359647667842860e-01  -9.5414278184110968e-02  -9.4027216040638448e-02  -9.7098889120831033e-02  -9.3048308823945367e-02  -8.9811679139694539e-02  -8.9035181369909192e-02  -8.5698496757971199e-02  -8.5070013491504837e-02  -8.1661084036398657e-02  -8.1201020868179305e-02  -7.7726151362556437e-02  -7.7360525340924510e-02  -7.3861174952018466e-02  -7.3510683803773916e-02  -7.0057509377655938e-02  -6.9778741011924356e-02  -6.6355723808394648e-02  -6.6121289716752088e-02  -6.2825997920700566e-02  -6.2562046069361610e-02  -5.9372716964618655e-02  -5.9072889286034165e-02  -5.5933472805234592e-02  -5.5655672307115989e-02  -5.2629638732686584e-02  -5.2322169842521297e-02  -4.9456141518515372e-02  -4.9078371777412623e-02  -4.6443478173174249e-02  -4.5928780573757731e-02  -4.3222885821770404e-02  -4.2815689151911293e-02  -1.0946696622783116e-01  -4.2076604763410913e-01  -4.6031592122808912e-01  -3.9532026740814252e-01  -3.918528255890849