<?xml version="1.0"?>
<VTKFile type="UnstructuredGrid"  version="0.1"  >
<UnstructuredGrid>
<Piece  NumberOfPoints="2886" NumberOfCells="5412">
<Points>
<DataArray  type="Float64"  NumberOfComponents="3"  format="ascii">0 0.1 0  0.98 0.1 0  1 0.1 0  1 0 0  1.5 0 0  3 0 0  3 0.3 0  0 0.3 0  0.01975375321854102 0.1 0  0.03918897458218897 0.1 0  0.05831079002627837 0.1 0  0.07712425666319796 0.1 0  0.0956343475259058 0.1 0  0.1138459546796227 0.1 0  0.1317638870668193 0.1 0  0.1493928840275937 0.1 0  0.1667376092280033 0.1 0  0.1838026357802664 0.1 0  0.2005924801287244 0.1 0  0.2171115811543574 0.1 0  0.2333643037107681 0.1 0  0.2493549444060462 0.1 0  0.2650877293306821 0.1 0  0.2805668058011438 0.1 0  0.2957962848620976 0.1 0  0.3107801766802674 0.1 0  0.3255224447361181 0.1 0  0.3400269848175519 0.1 0  0.3542976327080778 0.1 0  0.3683381609158136 0.1 0  0.3821522744564845 0.1 0  0.3957436316838916 0.1 0  0.4091158196437086 0.1 0  0.4222723742184605 0.1 0  0.4352167733293057 0.1 0  0.4479524348643424 0.1 0  0.4604827295467524 0.1 0  0.4728109659990664 0.1 0  0.4849404035409129 0.1 0  0.4968742471455402 0.1 0  0.508615651843175 0.1 0  0.520167721130924 0.1 0  0.5315335063628542 0.1 0  0.5427160117228604 0.1 0  0.5537181940261912 0.1 0  0.564542961924507 0.1 0  0.575193173270606 0.1 0  0.5856716438765114 0.1 0  0.5959811458006617 0.1 0  0.6061243988680743 0.1 0  0.6161040893285659 0.1 0  0.6259228503970299 0.1 0  0.6355832809287655 0.1 0  0.6450879281079505 0.1 0  0.6544393102991295 0.1 0  0.663639896558931 0.1 0  0.6726921201956305 0.1 0  0.6815983691630338 0.1 0  0.6903610031396646 0.1 0  0.6989823343332418 0.1 0  0.7074646404270378 0.1 0  0.7158101645005117 0.1 0  0.7240211149852543 0.1 0  0.7320996585612525 0.1 0  0.7400479319727645 0.1 0  0.7478680336617921 0.1 0  0.755562036504958 0.1 0  0.7631319665092091 0.1 0  0.7705798279317605 0.1 0  0.777907588066146 0.1 0  0.7851171851013118 0.1 0  0.7922105226004981 0.1 0  0.7991894774550319 0.1 0  0.8060558928136696 0.1 0  0.812811583201334 0.1 0  0.8194583352091183 0.1 0  0.8259979035038147 0.1 0  0.8324320194413813 0.1 0  0.8387623808293405 0.1 0  0.8449906627004957 0.1 0  0.8511185094880469 0.1 0  0.8571475426008311 0.1 0  0.8630793533568246 0.1 0  0.8689155114558531 0.1 0  0.8746575581239063 0.1 0  0.8803070109173519 0.1 0  0.885865363938836 0.1 0  0.8913340851680313 0.1 0  0.8967146206523592 0.1 0  0.9020083930695622 0.1 0  0.9072167995950768 0.1 0  0.9123412183131177 0.1 0  0.9173830029719022 0.1 0  0.9223434865647732 0.1 0  0.9272239785872722 0.1 0  0.9320257720706087 0.1 0  0.9367501330378739 0.1 0  0.9413983102716995 0.1 0  0.9459715351562933 0.1 0  0.9504710127113115 0.1 0  0.9548979346500661 0.1 0  0.9592534708344373 0.1 0  0.9635387708980176 0.1 0  0.9677549682252325 0.1 0  0.971903177251235 0.1 0  0.9759844952956497 0.1 0  0.9840000000000086 0.1 0  0.987999999999974 0.1 0  0.9919999999999393 0.1 0  0.9959999999999913 0.1 0  1 0.09591793123533533 0  1 0.09133596463859224 0  1 0.08619288104391448 0  1 0.08041996484521211 0  1 0.07394008421771697 0  1 0.06666666567302955 0  1 0.05850252932209174 0  1 0.04933859630113544 0  1 0.03905242821848202 0  1 0.02750659386753798 0  1 0.01454683679239736 0  1.015625 0 0  1.03125 0 0  1.046875 0 0  1.0625 0 0  1.078125 0 0  1.09375 0 0  1.109375 0 0  1.125 0 0  1.140625 0 0  1.15625 0 0  1.171875 0 0  1.1875 0 0  1.203125 0 0  1.21875 0 0  1.234375 0 0  1.25 0 0  1.265625 0 0  1.28125 0 0  1.296875 0 0  1.3125 0 0  1.328125 0 0  1.34375 0 0  1.359375 0 0  1.375 0 0  1.390625 0 0  1.40625 0 0  1.421875 0 0  1.4375 0 0  1.453125 0 0  1.46875 0 0  1.484375 0 0  1.515920751924515 0 0  1.531989369316721 0 0  1.54820720925872 0 0  1.564575665560501 0 0  1.581096138674279 0 0  1.597770029901263 0 0  1.614598783332311 0 0  1.631583831055205 0 0  1.64872661129721 0 0  1.666028606716533 0 0  1.683491276608443 0 0  1.701116134125304 0 0  1.718904673324128 0 0  1.736858414799339 0 0  1.754978895814663 0 0  1.773267661782904 0 0  1.791726281103402 0 0  1.810356325314689 0 0  1.8291593848892 0 0  1.848137076690385 0 0  1.867291007717254 0 0  1.886622833871288 0 0  1.90613418642363 0 0  1.925826753299799 0 0  1.945702199101513 0 0  1.96576223584749 0 0  1.986008569283268 0 0  2.006442931928877 0 0  2.02706707547783 0 0  2.047882750887917 0 0  2.06889175187935 0 0  2.090095860038271 0 0  2.111496891648636 0 0  2.133096679109554 0 0  2.154897066851056 0 0  2.176899916687499 0 0  2.199107102752146 0 0  2.22152053937028 0 0  2.244142122958061 0 0  2.266973806444078 0 0  2.290017523268154 0 0  2.313275249499252 0 0  2.336748971745516 0 0  2.360440702338606 0 0  2.384352453384031 0 0  2.408486280477412 0 0  2.432844240041185 0 0  2.457428414757088 0 0  2.482240901796653 0 0  2.507283830121838 0 0  2.532559332080812 0 0  2.558069568787417 0 0  2.583816724966441 0 0  2.60980299606584 0 0  2.636030600971886 0 0  2.662501790984011 0 0  2.689218818279327 0 0  2.716183964547616 0 0  2.743399548861297 0 0  2.77086788244719 0 0  2.798591312896326 0 0  2.826572223178268 0 0  2.854812990138617 0 0  2.883316031690714 0 0  2.912083780657189 0 0  2.941118704633482 0 0  2.970423276998917 0 0  3 0.02999999999994495 0  3 0.05999999999987042 0  3 0.089999999999783 0  3 0.119999999999701 0  3 0.149999999999619 0  3 0.179999999999692 0  3 0.2099999999997737 0  3 0.2399999999998511 0  3 0.2699999999999185 0  2.970138294777171 0.3 0  2.940375666438236 0.3 0  2.910711782853056 0.3 0  2.881146331305122 0.3 0  2.851678975030285 0.3 0  2.822309388626621 0.3 0  2.793037250095074 0.3 0  2.76386223529133 0.3 0  2.734784017903872 0.3 0  2.705802289276642 0.3 0  2.676916713794697 0.3 0  2.648126987654635 0.3 0  2.619432780406184 0.3 0  2.590833779385199 0.3 0  2.562329669847737 0.3 0  2.533920134950189 0.3 0  2.505604855727852 0.3 0  2.477383539822502 0.3 0  2.449255847639465 0.3 0  2.421221492569094 0.3 0  2.393280152486815 0.3 0  2.36543151914496 0.3 0  2.337675285481809 0.3 0  2.310011142385583 0.3 0  2.282438797441587 0.3 0  2.254957931061538 0.3 0  2.227568248063605 0.3 0  2.200269436651085 0.3 0  2.173061204949961 0.3 0  2.145943251515011 0.3 0  2.118915272469994 0.3 0  2.091976978084957 0.3 0  2.065128060700849 0.3 0  2.038368218849433 0.3 0  2.01169717777258 0.3 0  1.985114624111908 0.3 0  1.958620267850966 0.3 0  1.93221382054972 0.3 0  1.905894991850698 0.3 0  1.879663489459713 0.3 0  1.853519019126419 0.3 0  1.827461291053897 0.3 0  1.801490031354372 0.3 0  1.775604937580312 0.3 0  1.74980572560258 0.3 0  1.724092118631866 0.3 0  1.698463829173586 0.3 0  1.672920575782554 0.3 0  1.647462076974085 0.3 0  1.622088043536933 0.3 0  1.5967981978949 0.3 0  1.571592267767068 0.3 0  1.546469970305736 0.3 0  1.521431023814044 0.3 0  1.496475156230927 0.3 0  1.471602093687753 0.3 0  1.446811560490646 0.3 0  1.422103279101731 0.3 0  1.397476971708191 0.3 0  1.37293238939876 0.3 0  1.348469231419202 0.3 0  1.324087248732772 0.3 0  1.299786165921677 0.3 0  1.275565710847046 0.3 0  1.251425617644257 0.3 0  1.227365618676339 0.3 0  1.203385446174014 0.3 0  1.179484853067473 0.3 0  1.155663548773374 0.3 0  1.131921292279077 0.3 0  1.108257802159295 0.3 0  1.084672829009693 0.3 0  1.061166115303374 0.3 0  1.037737392995421 0.3 0  1.01438640299116 0.3 0  0.991112899770314 0.3 0  0.9679166155523955 0.3 0  0.944797284182564 0.3 0  0.921754678526042 0.3 0  0.8987885143602501 0.3 0  0.8758985548820624 0.3 0  0.8530845484099929 0.3 0  0.8303462351786988 0.3 0  0.8076833651172373 0.3 0  0.7850956864865304 0.3 0  0.7625829601354557 0.3 0  0.7401449314598274 0.3 0  0.717781337993959 0.3 0  0.6954919649675473 0.3 0  0.6732765357561226 0.3 0  0.6511348120768439 0.3 0  0.6290665642016573 0.3 0  0.6070715355430467 0.3 0  0.5851494825775325 0.3 0  0.5633001690203812 0.3 0  0.5415233562273221 0.3 0  0.5198187909431873 0.3 0  0.4981862401387795 0.3 0  0.4766254686134248 0.3 0  0.4551362360485234 0.3 0  0.4337182975262159 0.3 0  0.4123714223228037 0.3 0  0.3910953802377493 0.3 0  0.3698899313205595 0.3 0  0.3487548463710963 0.3 0  0.3276898864081783 0.3 0  0.3066948129116018 0.3 0  0.2857694003037476 0.3 0  0.2649134227095047 0.3 0  0.2441266417321288 0.3 0  0.2234088223399122 0.3 0  0.2027597568977288 0.3 0  0.1821792020676698 0.3 0  0.1616669305402443 0.3 0  0.1412227158799362 0.3 0  0.12084633013886 0.3 0  0.1005375673448281 0.3 0  0.08029618164595353 0.3 0  0.06012194778526769 0.3 0  0.04001466495039718 0.3 0  0.01997408913631205 0.3 0  0 0.2800000000000553 0  0 0.2600000000001105 0  0 0.2400000000001658 0  0 0.2200000000002211 0  0 0.2000000000002764 0  0 0.1800000000002244 0  0 0.1600000000001691 0  0 0.140000000000115 0  0 0.1200000000000564 0  1.13346801534201 0.01255848438672509 0  1.003577645172735 0.09351054173913405 0  0.9777559943702486 0.1034978156913738 0  0.9524533750752109 0.1040889939962738 0  0.9296242411226409 0.1041520033606139 0  0.9046110503652111 0.104409422380137 0  0.8777709649694228 0.1053360318797398 0  0.8483859145648608 0.1061007868330701 0  0.8162363822948977 0.1052777104363292 0  0.7893110024210437 0.1060761643971561 0  0.7587949382612539 0.1067265405088633 0  0.7280603867732535 0.1069398153264939 0  0.6947001989413015 0.1075609887579097 0  0.6590363283767549 0.1076715322596598 0  0.6210028614493155 0.1072970410408442 0  1.1953125 0.01353164693413185 0  1.258193991486058 0.01269648635163345 0  1.3201967268638 0.01407907077719561 0  1.383538555392096 0.01434101079053473 0  1.445312500000001 0.01303671693628424 0  1.508925448095738 0.01398525724792267 0  0.9939176689634008 0.1034638089837981 0  1.120967497222226 0.2796788492172345 0  1.572835902117391 0.01424132418857359 0  1.637573277451887 0.01212536916586023 0  1.709730776795181 0.01466855431023635 0  1.005631976950563 0.07074019818158772 0  1.784944696816299 0.01454708406461822 0  0.5805605730631225 0.1101465090472147 0  1.855621181165637 0.01550931272897607 0  0.5366111276616774 0.1096761308243709 0  1.935200147913231 0.01760344159641829 0  1.214922267975168 0.2799787705802257 0  1.31178773425331 0.2792
[...]
<PointData  Scalars="pressure"> 
<DataArray  type="Float64"  Name="pressure"  format="ascii">-1.2074976476765852e-02  -9.1975142185770875e-01  -3.3647265463103648e-02  -2.4274767418550069e-02  2.6341971062748402e-02  0.0000000000000000e+00  0.0000000000000000e+00  -1.2005467208869663e-02  -1.8001067211252851e-02  -2.3832282895220519e-02  -2.9570443625983749e-02  -3.5217143958756351e-02  -4.0774084701897292e-02  -4.6242852590189509e-02  -5.1624810058092656e-02  -5.6921858695006280e-02  -6.2135364865625174e-02  -6.7266860667764924e-02  -7.2318205715184561e-02  -7.7290901692020533e-02  -8.2186309071567154e-02  -8.7006449591391144e-02  -9.1752895459198389e-02  -9.6426588725035386e-02  -1.0103037912720671e-01  -1.0556536984283262e-01  -1.1003327805269131e-01  -1.1443657563104070e-01  -1.1877656830535994e-01  -1.2305433418006891e-01  -1.2727339163876944e-01  -1.3143465693518797e-01  -1.3554132071189243e-01  -1.3959487872132367e-01  -1.4359631360878305e-01  -1.4754917712635945e-01  -1.5145616482301555e-01  -1.5531885031809464e-01  -1.5913977900434884e-01  -1.6292227242647786e-01  -1.6666782449171216e-01  -1.7038044315259843e-01  -1.7406217959355408e-01  -1.7771686138510578e-01  -1.8134742701576045e-01  -1.8495267581872024e-01  -1.8854363619360778e-01  -1.9211910026973700e-01  -1.9568259888263437e-01  -1.9924045579160879e-01  -2.0279584809940604e-01  -2.0634584804658820e-01  -2.0990551382352340e-01  -2.1347283642927006e-01  -2.1705294857143018e-01  -2.2065130297811228e-01  -2.2427220014052965e-01  -2.2792057646449981e-01  -2.3160304473395046e-01  -2.3532404926177661e-01  -2.3908830680044843e-01  -2.4290076889321288e-01  -2.4677380600356078e-01  -2.5070654440559181e-01  -2.5470871709055043e-01  -2.5878275330550982e-01  -2.6294767015055232e-01  -2.6720604101158485e-01  -2.7155510112092612e-01  -2.7601283536240068e-01  -2.8059590251411065e-01  -2.8529777573544424e-01  -2.9014253934626355e-01  -2.9513900725973119e-01  -3.0028798809597401e-01  -3.0561124463849965e-01  -3.1112159028839403e-01  -3.1683271346949615e-01  -3.2277332107533402e-01  -3.2894860364033551e-01  -3.3536959865958160e-01  -3.4204835438503328e-01  -3.4905579877056531e-01  -3.5638369764213967e-01  -3.6405606869428747e-01  -3.7212235132369154e-01  -3.8060763693576982e-01  -3.8955669920243347e-01  -3.9901408674972749e-01  -4.0906489126990642e-01  -4.1975778016560150e-01  -4.3114941332337381e-01  -4.4337203951285287e-01  -4.5653497344271227e-01  -4.7077711627127078e-01  -4.8628570608325866e-01  -5.0328891460116276e-01  -5.2208594667659325e-01  -5.4308837855752001e-01  -5.6686590215283161e-01  -5.9422529054245943e-01  -6.2627884127175026e-01  -6.6524387325645240e-01  -7.1435023668302000e-01  -7.7793777767162009e-01  -8.9443219597811463e-01  -1.9006041874737674e+00  -1.7199238925631422e+00  -1.2160977287259616e+00  -7.5651943246886411e-01  -1.5026510803052615e-01  -7.9480942383691161e-02  -6.4751815737339638e-02  -5.0980442178697828e-02  -4.2255637923596656e-02  -3.6102772451521790e-02  -3.1589894476982072e-02  -2.8001715455577902e-02  -2.5291614241108547e-02  -2.3681887275895788e-02  -2.3624584638736255e-02  -2.5073381447806117e-02  -2.4899626300856355e-02  -2.3131554252703038e-02  -1.9920492351352750e-02  -1.5367885184058426e-02  -9.6571192883569620e-03  -2.9828621241228723e-03  4.3986411884349309e-03  1.2056727710076647e-02  1.9612840170726318e-02  2.6746865912674205e-02  3.3175275297281689e-02  3.8715622864092678e-02  4.3242365773149355e-02  4.6698414688214097e-02  4.9102108282872141e-02  5.0514566114310891e-02  5.1027327408962105e-02  5.0784116836563704e-02  4.9886970372676635e-02  4.8440468656109528e-02  4.6670239189161709e-02  4.4570513648014523e-02  4.2334908530429913e-02  4.0020176883126007e-02  3.7733321999670798e-02  3.5463081927280593e-02  3.3320008757983771e-02  3.1312203346249415e-02  2.9471845787599277e-02  2.7813125776808487e-02  2.5039747046594788e-02  2.3930694973400446e-02  2.3003708373626690e-02  2.2253789562231587e-02  2.1683992053848054e-02  2.1272207750620321e-02  2.1007745032290519e-02  2.0886461494770126e-02  2.0894743712577105e-02  2.1007426750326061e-02  2.1221353204452214e-02  2.1519574708780020e-02  2.1890466166843491e-02  2.2320869655261998e-02  2.2800132271509094e-02  2.3316548784985649e-02  2.3859906359729937e-02  2.4422663008475249e-02  2.4990917853503342e-02  2.5564398826405342e-02  2.6129169626778959e-02  2.6680812705236236e-02  2.7214379248941253e-02  2.7724536913661595e-02  2.8206342957152162e-02  2.8651631116877064e-02  2.9069289210971391e-02  2.9443783412005899e-02  2.9776724897297699e-02  3.0066339213463977e-02  3.0310150545703102e-02  3.0506356118900100e-02  3.0656009270703020e-02  3.0758255550348421e-02  3.0809940833951117e-02  3.0813086279122652e-02  3.0765623879345665e-02  3.0668663022705739e-02  3.0520990684574621e-02  3.0322373021010679e-02  3.0072649309109731e-02  2.9771013717904755e-02  2.9416147293315698e-02  2.9008326612245089e-02  2.8544707950465507e-02  2.8024753563470672e-02  2.7449039612811681e-02  2.6812329170368833e-02  2.6117495432152731e-02  2.5362381979455843e-02  2.4547079482781602e-02  2.3669179575605215e-02  2.2731024555710379e-02  2.1730399188828721e-02  2.0665362841907200e-02  1.9537377292488004e-02  1.8342607894203784e-02  1.7081737737453997e-02  1.5750880066142964e-02  1.4348020271718330e-02  1.2866007087746989e-02  1.1308070195397098e-02  9.6639967255819810e-03  7.9383935176251287e-03  6.1138948547126287e-03  4.2040903757262146e-03  2.2004950289598230e-03  0.0000000000000000e+00  0.0000000000000000e+00  0.0000000000000000e+00  0.0000000000000000e+00  0.0000000000000000e+00  0.0000000000000000e+00  0.0000000000000000e+00  0.0000000000000000e+00  0.0000000000000000e+00  1.4687663481427532e-03  2.9812419541564925e-03  4.5264853302104755e-03  6.0852607197629640e-03  7.6594261786309369e-03  9.2436699961284136e-03  1.0834326976880401e-02  1.2427235560931817e-02  1.4016845391196237e-02  1.5599764960582281e-02  1.7172052307623555e-02  1.8732385246204273e-02  2.0278100127683898e-02  2.1809524566457173e-02  2.3327557329586985e-02  2.4830371990134284e-02  2.6321886486053249e-02  2.7800418780102396e-02  2.9267021527556610e-02  3.0720868503619714e-02  3.2161988483400426e-02  3.3586254499504385e-02  3.4996426975412651e-02  3.6380165324316739e-02  3.7740091657839439e-02  3.9063372051086752e-02  4.0339574397772894e-02  4.1559930176047324e-02  4.2711248069444485e-02  4.3775987445398845e-02  4.4734246789061349e-02  4.5554824628347937e-02  4.6232057955394604e-02  4.6732853361621592e-02  4.7004789946513720e-02  4.7030315182247699e-02  4.6782239632303456e-02  4.6217431708871444e-02  4.5297363185762600e-02  4.4010095315730871e-02  4.2308414219900135e-02  4.0177995648453722e-02  3.7611799585265095e-02  3.4593414755887703e-02  3.1122853612891768e-02  2.7219341698660946e-02  2.2892996657943310e-02  1.8172882619051586e-02  1.3094282675259925e-02  7.7184146476880567e-03  2.0799898851090043e-03  -3.7679553696938605e-03  -9.7701239899942241e-03  -1.5883574047520135e-02  -2.2058742084614984e-02  -2.8251958312543814e-02  -3.4437307043693924e-02  -4.0603914139138039e-02  -4.6707766998377288e-02  -5.2761039700743750e-02  -5.8775133666907974e-02  -6.4755210593799337e-02  -7.0732006424955057e-02  -7.6736676282044766e-02  -8.2814174405434468e-02  -8.9016724877803113e-02  -9.5404139788119582e-02  -1.0205303614636979e-01  -1.0902931485608842e-01  -1.1641842101461761e-01  -1.2431481856347203e-01  -1.3277664184312862e-01  -1.4183166425891275e-01  -1.5148407482376830e-01  -1.6152498313983754e-01  -1.7175676449689750e-01  -1.8176829324174196e-01  -1.9114141479037158e-01  -1.9950660431346068e-01  -2.0667671777442975e-01  -2.1211214336692558e-01  -2.1598567430654120e-01  -2.1821964904673966e-01  -2.1925112745256203e-01  -2.1897335858307510e-01  -2.1750133103974323e-01  -2.1517999523425743e-01  -2.1209563406311113e-01  -2.0831114842802248e-01  -2.0402258141742299e-01  -1.9926740806613991e-01  -1.9421194901123948e-01  -1.8888056408597095e-01  -1.8329569321922148e-01  -1.7756734328997542e-01  -1.7170742808927716e-01  -1.6572776384024299e-01  -1.5966275808202296e-01  -1.5354355543822681e-01  -1.4738194328261497e-01  -1.4118375189125726e-01  -1.3496468061865483e-01  -1.2872727860838723e-01  -1.2248804867880124e-01  -1.1624415975760201e-01  -1.1000338230698058e-01  -1.0376909759136198e-01  -9.7542824821975474e-02  -9.1328246363008750e-02  -8.5126471952646998e-02  -7.8938489648479840e-02  -7.2765805510211501e-02  -6.6609323719948335e-02  -6.0469651090077264e-02  -5.4347275987880327e-02  -4.8243012917791560e-02  -4.2156711214677990e-02  -3.6088822502072987e-02  -3.0039655645327096e-02  -2.4009210914444554e-02  -1.7997788217298673e-02  -1.2005736793282696e-02  -1.2008629691572211e-02  -1.2015687530601487e-02  -1.2026761414741944e-02  -1.2040209816939741e-02  -1.2053672104293506e-02  -1.2064769188488188e-02  -1.2071874158013342e-02  -1.2074756793354957e-02  7.9606338496608503e-03  -7.7209072817757393e-02  -9.8712736043870608e-01  -5.8412245405129593e-01  -4.8072747825443363e-01  -4.1568731374332968e-01  -3.6945021887383955e-01  -3.3318717889800981e-01  -3.0344498535461856e-01  -2.8370965784596436e-01  -2.6501377372103746e-01  -2.4892353347219101e-01  -2.3361624693896643e-01  -2.1894753705702891e-01  -2.0462850022721454e-01  3.4973546310446441e-02  4.8999815454523282e-02  4.8543392250608643e-02  4.0775267188250502e-02  3.2263371025928834e-02  2.5727257856562203e-02  -6.1844925978031728e-01  -1.1928015688204315e-01  2.2172181286858227e-02  2.1073266145112058e-02  2.1891337863886300e-02  -3.8966048511317915e-02  2.3809202758234636e-02  -1.9042910787903938e-01  2.5893549390730821e-02  -1.7575462443682288e-01  2.8019856291617278e-02  -9.2026579684312645e-02  -6.7702434657537308e-02  2.9684492717054582e-02  -4.3824214155057176e-02  -1.6104898933157918e-01  -1.3103037858058438e-02  3.0561416858065928e-02  -1.4558695021040521e-01  -1.2272115318745757e-02  3.0745014500788672e-02  1.5241485056879275e-02  -1.4603949230528818e-01  -1.2980167922899263e-01  3.0126614690533349e-02  3.8483641679414413e-02  -1.1205013635350838e-01  4.4228173073719422e-02  2.8670734893659389e-02  4.6619068436142962e-02  -9.4617655459334038e-02  -1.7509265133358629e-01  2.6401037508569185e-02  4.6265594312902836e-02  -2.0196180211578246e-01  4.4052582243024663e-02  2.3101715975165329e-02  -2.1649103365910133e-01  -7.4328646580330629e-02  -6.0277859993754804e-02  2.8756574267269141e-02  1.9994648186495038e-02  1.6170286622741802e-02  4.0844080142690781e-02  -2.1799752314289564e-01  3.5600279582508151e-02  -6.9385551124545830e-01  -2.0632369950278207e-01  3.1475499315548439e-02  -4.2803407259097259e-02  -1.9151316509387425e-01  1.2004732462151954e-02  2.5674120687312348e-02  -1.7449629741379843e-01  -1.5028968202735193e-01  2.1117878709984720e-02  -1.1936007824515803e-01  1.6451582024838672e-02  -1.0059789828205089e-01  -8.1925338003333917e-02  1.1687702238208654e-02  -5.0401395113825395e-02  1.5450338607541545e-03  -1.7614590324035184e-02  -2.7157460915703265e-02  7.0358854402618552e-03  6.8486579529150370e-03  -3.2613202541248450e-02  -5.3999734772647190e-02  -2.1176772768614620e-02  -1.0501987129909547e-01  -2.1341266328933359e-01  -1.6314096582799101e-01  -1.3838570419835730e-01  -3.2342517725456002e-02  -1.6781949779384889e-03  -3.1286425279638701e-02  -5.5700740664379481e-02  -7.9577882316707524e-02  -8.4302362773148010e-02  3.8373420591420113e-02  -1.0359129025960018e-01  -6.9723853707131953e-02  2.8598241409117060e-02  2.4869255976721898e-02  -1.2148896336053913e-01  2.7583537886816421e-02  2.9512398561520034e-02  -1.3732271562202328e-01  3.0536708629594313e-02  3.0754074399904685e-02  3.0157387512408998e-02  2.8957292621186268e-02  2.3625834949433100e-02  -1.5340475322579139e-01  2.6991476022771212e-02  2.4852137862229971e-02  -1.6853229009415294e-01  2.2772663447127812e-02  2.1318599944842233e-02  2.1360462190086721e-02  1.5508961526133575e-03  -1.8358671280009739e-01  -1.9699762511565333e-01  -1.7298030998792135e-02  -2.1139158510739292e-01  -2.2621613389122050e-01  -2.4115941376870104e-01  -2.5713179972135075e-01  -2.7417444840680683e-01  -2.9279482871637874e-01  2.2764864970215279e-02  -3.2034788663409802e-01  -3.5343864971622535e-01  -3.9541663921510051e-01  4.4016687291159824e-02  -4.5208503310769821e-01  4.5223442639524436e-02  5.0149798059099603e-02  3.6742240115081752e-02  2.8681242323079489e-02  -5.3575184781558427e-01  -1.4263039880313513e+00  1.3796962199443901e-03  -1.7751677623729728e-02  3.7524380486376116e-03  -2.4257690203730371e-02  -1.7058495208214636e-02  1.6786905670170842e-03  -2.1101159438242985e-02  -2.3301528601357747e-02  -2.2700614397884931e-02  -2.0608976409724641e-02  -2.2914268853458146e-02  -2.0669365271434249e-02  -2.3137914271064330e-02  -2.0152883536737689e-02  -2.2687453419310062e-02  -1.9237990212155363e-02  -2.1682046457975650e-02  -1.8251213973222723e-02  -2.1265756913682300e-02  -1.7821011303920907e-02  -2.3022524056403215e-02  -1.9543943831944393e-02  -2.8014257933391282e-02  -2.4447325267914457e-02  -3.6556341556168194e-02  -3.2785817162320992e-02  -4.7951572338796739e-02  -4.2892622654780076e-02  -5.4217737968322674e-02  -2.6098598288968201e-02  -3.8343293302915880e-02  -6.6275610848311239e-02  -7.4717671985694095e-02  -2.3046045920324332e-02  -3.4333159962170061e-02  -1.8306824830676915e-02  -3.1525801869930044e-02  -1.4334063511625928e-02  -3.0033023043617470e-02  -1.1139901400747837e-02  -2.6556311287781104e-02  -8.2114940784406617e-03  -2.7289409806883422e-02  -7.3491048464467794e-03  -2.3971935495657092e-02  -5.8667017926255175e-03  -2.3200403747515128e-02  -5.1988415844183219e-03  -2.2507642074091228e-02  -4.9867409163225603e-03  -2.2259651037446867e-02  -5.0812659022338239e-03  -2.1517056765891569e-02  -5.3091443689251882e-03  -2.1220868618781478e-02  -5.6393965694544936e-03  -2.0437854118273945e-02  -6.8285065111149115e-03  -1.9668784945413346e-02  -4.9853284782983981e-03  -8.6341510357434773e-02  -9.8885769949770067e-02  -1.9180775433572141e-02  -6.2018907112775523e-03  -1.7410642539319135e-02  -5.5590989229396346e-03  -1.6377272273944928e-02  -5.0106748177991657e-03  -1.4631938252656294e-02  -4.0809129746552176e-03  -5.0432482815319965e-02  -1.2513229293097885e-02  -2.8808100165025074e-03  -1.1349071005430032e-02  -1.6151941907932438e-03  -7.6748041012297107e-03  2.8271857262230531e-04  -1.0671383971607440e-01  -1.2458766958405598e-01  -2.5596684269725962e-02  -5.0692684798247997e-03  2.2300200847298270e-03  -2.1207503921611059e-03  4.3388905143986033e-03  8.5592032955985849e-04  6.5957112644381170e-03  -9.1989740619536964e-02  3.9596234579715077e-03  8.9652244850513627e-03  -4.6146971416163959e-02  7.1014743103757659e-03  1.1395466319984697e-02  1.0245998588665074e-02  1.3884251085910357e-02  1.3407736443817155e-02  1.6333961030160077e-02  -1.3719540741463733e-02  -4.1119843867316042e-02  1.6458653133065521e-02  1.8795170565780540e-02  -1.2608656082415029e-01  -1.4451891413398515e-01  -1.1190523397716776e-01  -3.7257638579180664e-02  1.9434682324241819e-02  2.1219318880595393e-02  2.2302942756717088e-02  2.3541351377320920e-02  2.5016906502635067e-02  2.5692756024830333e-02  7.6800801724728682e-03  2.0710256281903341e-02  1.1704569848015109e-02  5.6095792101717888e-03  2.7559994682655103e-02  2.7732115094730159e-02  2.5885163917896248e-02  2.7450429406860370e-02  2.9611089621317067e-02  2.8900193216564528e-02  3.1311135626709799e-02  3.0263254567110022e-02  3.2868887054579965e-02  3.1555471381104455e-02  3.4255071197120568e-02  3.2682511431352729e-02  3.5456296738302043e-02  3.3674576682374870e-02  3.6548262883539559e-02  3.4554801396438295e-02  3.7399006821554268e-02  3.5166221949534379e-02  3.8087690686767185e-02  3.5775878791354777e-02  3.8647152590396576e-02  3.6236020645813417e-02  3.9138355706723388e-02  3.6607199333417925e-02  5.2214678781415981e-03  -3.3673969340096754e-02  3.9421985887756569e-02  3.6835642597429538e-02  3.9499370256582671e-02  3.6979021439334868e-02  1.1806667778607486e-03  1.0819010339930319e-02  3.9475298676195036e-02  3.6989795941390680e-02  1.1020487307992526e-02  -2.6382883257321164e-02  -1.4095685018118878e-01  -1.6037351241577000e-01  -1.7240994377279206e-01  -1.8584957367041954e-01  -2.0697168890046505e-01  -2.1464501610105752e-01  -2.5012980183969924e-01  -2.4703846277793493e-01  -2.8609363163823892e-01  -2.7671997287011518e-01  -3.2328037865818543e-01  -3.0317362558719818e-01  -3.4862294716815961e-01  -3.2291907284341842e-01  -3.6525490669811900e-01  -3.3659462704787246e-01  -3.7299370292403389e-01  -3.4368157351671264e-01  -3.7415926587511511e-01  -3.4555427759270663e-01  -3.7053782699282106e-01  -3.4383085430072396e-01  -3.6427145825117058e-01  -3.3991634337522791e-01  -3.5648073945900460e-01  -3.3469672177091325e-01  -3.4688853908449624e-01  -3.2704328468212374e-01  -3.1342388338105986e-01  -3.0929437869981724e-01  -3.2086946522945964e-01  -3.0479143190331037e-01  -3.1562626289709317e-01  -3.0026046966122405e-01  -3.0855491321512502e-01  -2.9497308575936454e-01  -2.9221942049836824e-01  -2.9340946554546671e-01  -3.1893028812303326e-01  -3.0190523027415467e-01  -2.8960549352191278e-01  -2.8124233562207174e-01  -2.7736855115295600e-01  -2.8423243003222187e-01  -2.7354973627774959e-01  -2.7877724876956689e-01  -2.6924097997012897e-01  -2.7333672416781896e-01  -2.6444246827696705e-01  -2.6571901753145277e-01  -2.3221792838782804e-01  -3.7886781735174729e-01  -2.6800625232299119e-01  -2.5978446122240451e-01  -2.5564090309192428e-01  -2.5158409813600646e-01  -2.5516233214736195e-01  -2.4773705218429001e-01  -2.5041061249627139e-01  -2.4363011799080053e-01  -4.1052119337190657e-01  -2.4375492574956517e-01  -2.4568596683447202e-01  -2.3954444844709888e-01  -4.0033750514035382e-01  -2.4111600600459102e-01  -2.3524019026558576e-01  -2.3364500836440977e-01  -2.2937175829291639e-01  -2.3086599925344525e-01  -2.2529163344058076e-01  -2.2343575149033074e-01  -2.1975055478932551e-01  -2.2118786281953373e-01  -2.1595795411355165e-01  -2.1700626887503163e-01  -2.1197734696950413e-01  -2.1082590524083111e-01  -2.0710669435305407e-01  -2.0788433029285333e-01  -2.0325769171484423e-01  -2.0376062962091460e-01  -1.9930866581220238e-01  -1.9140416107615782e-01  -3.3124665722531876e-01  -3.7800008196581553e-01  -1.9966228468289055e-01  -1.9532398465835671e-01  -1.9490047294977733e-01  -1.9091483807811802e-01  -1.9112202375682011e-01  -1.8687466193950950e-01  -1.9047326294100611e-01  3.9440468986078635e-02  3.6946918940558314e-02  3.9247804889780996e-02  3.6787783982365797e-02  3.8933633496922727e-02  3.6537029715480451e-02  -2.8900533232294784e-01  -1.2599940629658307e-02  -2.5203404201088762e-02  -1.8684942060327497e-01  -1.8278583345331254e-01  -3.1413292758438999e-01  3.0952603801469063e-02  3.4077336126277211e-02  2.5720818784592772e-02  3.8516405468420556e-02  3.6208419184251724e-02  3.4371767024121584e-02  3.4135779257692865e-02  3.5803226174544754e-02  3.3814197999148699e-02  3.5308854329778948e-02  3.3416914274055735e-02  3.4758432339408764e-02  3.2980536503631891e-02  3.4137590121300992e-02  3.2467355957352347e-02  3.3464326681185305e-02  3.1897871624653115e-02  3.2748550155227263e-02  3.1261661880440980e-02  3.1959891908174540e-02  3.0570451684679131e-02  3.1114899192049732e-02  2.9813700718629196e-02  3.0198928264954811e-02  2.8997706520312295e-02  2.9238897092187965e-02  2.8129365194651812e-02  2.8232257607188081e-02  2.7191804854340300e-02  2.7172222634400597e-02  2.6212853511548475e-02  2.6030495854744127e-02  2.5158467489157527e-02  2.4872244441139526e-02  2.4064772579025690e-02  3.4636929161622927e-02  -2.0602446939215957e-01  -2.5780155324524678e-01  -1.8248284445001117e-01  -1.7853394006604839e-01  -1.7877384304540581e-01  -1.7446422174544227e-01  -1.7473073951060650e-01  -1.7040133768978513e-01  -1.7012794551335406e-01  -1.6611064572998449e-01  -1.6560709330448745e-01  -1.6168160010257426e-01  -1.6209393344776196e-01  -1.5772180981746342e-01  -1.5736172514570257e-01  -1.5334163413543991e-01  -1