<?xml version="1.0"?>
<VTKFile type="UnstructuredGrid"  version="0.1"  >
<UnstructuredGrid>
<Piece  NumberOfPoints="2945" NumberOfCells="5525">
<Points>
<DataArray  type="Float64"  NumberOfComponents="3"  format="ascii">0 0.1 0  0.95 0.1 0  1 0.1 0  1 0 0  1.5 0 0  3 0 0  3 0.3 0  0 0.3 0  0.0197424558707114 0.1 0  0.03915669042224804 0.1 0  0.05824816022699029 0.1 0  0.07702223050332387 0.1 0  0.09548417327144595 0.1 0  0.1136391897583987 0.1 0  0.1314923700144587 0.1 0  0.1490487330862866 0.1 0  0.1663132263225292 0.1 0  0.1832906857273058 0.1 0  0.1999858946008978 0.1 0  0.216403545770297 0.1 0  0.2325482404045023 0.1 0  0.2484245348165176 0.1 0  0.2640368740372501 0.1 0  0.2793896589642241 0.1 0  0.2944872056237027 0.1 0  0.3093337469555254 0.1 0  0.3239334613687816 0.1 0  0.3382904528528069 0.1 0  0.3524087553122972 0.1 0  0.3662923366391824 0.1 0  0.3799451014768399 0.1 0  0.393370886920506 0.1 0  0.4065734648871676 0.1 0  0.419556546320114 0.1 0  0.4323237821343415 0.1 0  0.4448787573056132 0.1 0  0.4572250047274954 0.1 0  0.4693659926332938 0.1 0  0.4813051343276231 0.1 0  0.4930457849308193 0.1 0  0.5045912455271677 0.1 0  0.5159447600209797 0.1 0  0.5271095174127136 0.1 0  0.5380886618453393 0.1 0  0.5488852725463512 0.1 0  0.5595023868312478 0.1 0  0.5699429904313016 0.1 0  0.5802100167387366 0.1 0  0.5903063508274641 0.1 0  0.6002348329443006 0.1 0  0.6099982499579832 0.1 0  0.6195993483501782 0.1 0  0.6290408246013842 0.1 0  0.6383253354321616 0.1 0  0.6474554910757137 0.1 0  0.6564338522440513 0.1 0  0.6652629482939147 0.1 0  0.6739452579188948 0.1 0  0.6824832240165607 0.1 0  0.6908792415022103 0.1 0  0.6991356755989045 0.1 0  0.7072548438546967 0.1 0  0.7152390281534421 0.1 0  0.7230904746196039 0.1 0  0.7308113906759266 0.1 0  0.7384039435269326 0.1 0  0.7458702676581656 0.1 0  0.7532124631720397 0.1 0  0.7604325921167397 0.1 0  0.7675326856666862 0.1 0  0.7745147374421916 0.1 0  0.7813807123989068 0.1 0  0.7881325374362798 0.1 0  0.7947721131625659 0.1 0  0.8013013031866276 0.1 0  0.8077219449067021 0.1 0  0.8140358419942376 0.1 0  0.8202447685401882 0.1 0  0.8263504700910924 0.1 0  0.8323546643163114 0.1 0  0.8382590362474568 0.1 0  0.8440652473522128 0.1 0  0.8497749272799842 0.1 0  0.8553896837646281 0.1 0  0.8609110933285474 0.1 0  0.866340708855119 0.1 0  0.8716800550492284 0.1 0  0.8769306339052932 0.1 0  0.8820939206038667 0.1 0  0.8871713655604893 0.1 0  0.8921643975475726 0.1 0  0.8970744196575535 0.1 0  0.9019028106970642 0.1 0  0.9066509291259979 0.1 0  0.9113201098984042 0.1 0  0.9159116634553873 0.1 0  0.9204268818729691 0.1 0  0.9248670319440222 0.1 0  0.9292333656649013 0.1 0  0.9335271075812669 0.1 0  0.9377494640511216 0.1 0  0.941901623463222 0.1 0  0.9459847526686701 0.1 0  0.9538461538461205 0.1 0  0.9576923076922409 0.1 0  0.9615384615384381 0.1 0  0.9653846153846337 0.1 0  0.9692307692307542 0.1 0  0.9730769230768747 0.1 0  0.9769230769229952 0.1 0  0.9807692307691157 0.1 0  0.9846153846152361 0.1 0  0.9884615384614317 0.1 0  0.9923076923076356 0.1 0  0.9961538461538395 0.1 0  1 0.09591793123533533 0  1 0.09133596463859224 0  1 0.08619288104391448 0  1 0.08041996484521211 0  1 0.07394008421771697 0  1 0.06666666567302955 0  1 0.05850252932209174 0  1 0.04933859630113544 0  1 0.03905242821848202 0  1 0.02750659386753798 0  1 0.01454683679239736 0  1.015625 0 0  1.03125 0 0  1.046875 0 0  1.0625 0 0  1.078125 0 0  1.09375 0 0  1.109375 0 0  1.125 0 0  1.140625 0 0  1.15625 0 0  1.171875 0 0  1.1875 0 0  1.203125 0 0  1.21875 0 0  1.234375 0 0  1.25 0 0  1.265625 0 0  1.28125 0 0  1.296875 0 0  1.3125 0 0  1.328125 0 0  1.34375 0 0  1.359375 0 0  1.375 0 0  1.390625 0 0  1.40625 0 0  1.421875 0 0  1.4375 0 0  1.453125 0 0  1.46875 0 0  1.484375 0 0  1.515920751924515 0 0  1.531989369316721 0 0  1.54820720925872 0 0  1.564575665560501 0 0  1.581096138674279 0 0  1.597770029901263 0 0  1.614598783332311 0 0  1.631583831055205 0 0  1.64872661129721 0 0  1.666028606716533 0 0  1.683491276608443 0 0  1.701116134125304 0 0  1.718904673324128 0 0  1.736858414799339 0 0  1.754978895814663 0 0  1.773267661782904 0 0  1.791726281103402 0 0  1.810356325314689 0 0  1.8291593848892 0 0  1.848137076690385 0 0  1.867291007717254 0 0  1.886622833871288 0 0  1.90613418642363 0 0  1.925826753299799 0 0  1.945702199101513 0 0  1.96576223584749 0 0  1.986008569283268 0 0  2.006442931928877 0 0  2.02706707547783 0 0  2.047882750887917 0 0  2.06889175187935 0 0  2.090095860038271 0 0  2.111496891648636 0 0  2.133096679109554 0 0  2.154897066851056 0 0  2.176899916687499 0 0  2.199107102752146 0 0  2.22152053937028 0 0  2.244142122958061 0 0  2.266973806444078 0 0  2.290017523268154 0 0  2.313275249499252 0 0  2.336748971745516 0 0  2.360440702338606 0 0  2.384352453384031 0 0  2.408486280477412 0 0  2.432844240041185 0 0  2.457428414757088 0 0  2.482240901796653 0 0  2.507283830121838 0 0  2.532559332080812 0 0  2.558069568787417 0 0  2.583816724966441 0 0  2.60980299606584 0 0  2.636030600971886 0 0  2.662501790984011 0 0  2.689218818279327 0 0  2.716183964547616 0 0  2.743399548861297 0 0  2.77086788244719 0 0  2.798591312896326 0 0  2.826572223178268 0 0  2.854812990138617 0 0  2.883316031690714 0 0  2.912083780657189 0 0  2.941118704633482 0 0  2.970423276998917 0 0  3 0.02999999999994495 0  3 0.05999999999987042 0  3 0.089999999999783 0  3 0.119999999999701 0  3 0.149999999999619 0  3 0.179999999999692 0  3 0.2099999999997737 0  3 0.2399999999998511 0  3 0.2699999999999185 0  2.970138294777171 0.3 0  2.940375666438236 0.3 0  2.910711782853056 0.3 0  2.881146331305122 0.3 0  2.851678975030285 0.3 0  2.822309388626621 0.3 0  2.793037250095074 0.3 0  2.76386223529133 0.3 0  2.734784017903872 0.3 0  2.705802289276642 0.3 0  2.676916713794697 0.3 0  2.648126987654635 0.3 0  2.619432780406184 0.3 0  2.590833779385199 0.3 0  2.562329669847737 0.3 0  2.533920134950189 0.3 0  2.505604855727852 0.3 0  2.477383539822502 0.3 0  2.449255847639465 0.3 0  2.421221492569094 0.3 0  2.393280152486815 0.3 0  2.36543151914496 0.3 0  2.337675285481809 0.3 0  2.310011142385583 0.3 0  2.282438797441587 0.3 0  2.254957931061538 0.3 0  2.227568248063605 0.3 0  2.200269436651085 0.3 0  2.173061204949961 0.3 0  2.145943251515011 0.3 0  2.118915272469994 0.3 0  2.091976978084957 0.3 0  2.065128060700849 0.3 0  2.038368218849433 0.3 0  2.01169717777258 0.3 0  1.985114624111908 0.3 0  1.958620267850966 0.3 0  1.93221382054972 0.3 0  1.905894991850698 0.3 0  1.879663489459713 0.3 0  1.853519019126419 0.3 0  1.827461291053897 0.3 0  1.801490031354372 0.3 0  1.775604937580312 0.3 0  1.74980572560258 0.3 0  1.724092118631866 0.3 0  1.698463829173586 0.3 0  1.672920575782554 0.3 0  1.647462076974085 0.3 0  1.622088043536933 0.3 0  1.5967981978949 0.3 0  1.571592267767068 0.3 0  1.546469970305736 0.3 0  1.521431023814044 0.3 0  1.496475156230927 0.3 0  1.471602093687753 0.3 0  1.446811560490646 0.3 0  1.422103279101731 0.3 0  1.397476971708191 0.3 0  1.37293238939876 0.3 0  1.348469231419202 0.3 0  1.324087248732772 0.3 0  1.299786165921677 0.3 0  1.275565710847046 0.3 0  1.251425617644257 0.3 0  1.227365618676339 0.3 0  1.203385446174014 0.3 0  1.179484853067473 0.3 0  1.155663548773374 0.3 0  1.131921292279077 0.3 0  1.108257802159295 0.3 0  1.084672829009693 0.3 0  1.061166115303374 0.3 0  1.037737392995421 0.3 0  1.01438640299116 0.3 0  0.991112899770314 0.3 0  0.9679166155523955 0.3 0  0.944797284182564 0.3 0  0.921754678526042 0.3 0  0.8987885143602501 0.3 0  0.8758985548820624 0.3 0  0.8530845484099929 0.3 0  0.8303462351786988 0.3 0  0.8076833651172373 0.3 0  0.7850956864865304 0.3 0  0.7625829601354557 0.3 0  0.7401449314598274 0.3 0  0.717781337993959 0.3 0  0.6954919649675473 0.3 0  0.6732765357561226 0.3 0  0.6511348120768439 0.3 0  0.6290665642016573 0.3 0  0.6070715355430467 0.3 0  0.5851494825775325 0.3 0  0.5633001690203812 0.3 0  0.5415233562273221 0.3 0  0.5198187909431873 0.3 0  0.4981862401387795 0.3 0  0.4766254686134248 0.3 0  0.4551362360485234 0.3 0  0.4337182975262159 0.3 0  0.4123714223228037 0.3 0  0.3910953802377493 0.3 0  0.3698899313205595 0.3 0  0.3487548463710963 0.3 0  0.3276898864081783 0.3 0  0.3066948129116018 0.3 0  0.2857694003037476 0.3 0  0.2649134227095047 0.3 0  0.2441266417321288 0.3 0  0.2234088223399122 0.3 0  0.2027597568977288 0.3 0  0.1821792020676698 0.3 0  0.1616669305402443 0.3 0  0.1412227158799362 0.3 0  0.12084633013886 0.3 0  0.1005375673448281 0.3 0  0.08029618164595353 0.3 0  0.06012194778526769 0.3 0  0.04001466495039718 0.3 0  0.01997408913631205 0.3 0  0 0.2800000000000553 0  0 0.2600000000001105 0  0 0.2400000000001658 0  0 0.2200000000002211 0  0 0.2000000000002764 0  0 0.1800000000002244 0  0 0.1600000000001691 0  0 0.140000000000115 0  0 0.1200000000000564 0  1.133778471000506 0.01219539743990768 0  1.003741919047894 0.09354664821474232 0  0.9559421147150347 0.1035858189992458 0  0.9313792160389045 0.1037365237938103 0  0.9788461538460573 0.1033060829993555 0  0.9090102438250753 0.1037269304984056 0  0.8846304212778655 0.1043349840723655 0  0.8581503885465881 0.104741932962923 0  0.8286416220145676 0.1052762843984476 0  0.7982741772533339 0.1053575624517407 0  0.7708789559342691 0.1060290465840416 0  0.741870349714261 0.1078220590984258 0  0.7112469360040695 0.10685702926368 0  0.6783901541417233 0.1079959711853378 0  0.642884733623195 0.1075561996086514 0  0.6056235042367955 0.1085956039602543 0  0.5647007593786924 0.1083187281660325 0  1.1953125 0.01353164693413185 0  1.258148737344733 0.01268350115427042 0  1.320087046516829 0.01426312402966312 0  1.383495130751951 0.01432665475473204 0  1.4453125 0.01315663539200989 0  1.50886768312388 0.01395488397722681 0  0.9942307692307371 0.103330866937657 0  1.119309781943483 0.2802014914557878 0  1.572831235329714 0.01707210522554785 0  1.637611634353954 0.01209340368483431 0  1.709661292005932 0.0146870244871893 0  1.006561890631532 0.07068055446055937 0  1.784793444007901 0.01499371444634687 0  1.855459587353174 0.0
[...]
<PointData  Scalars="pressure"> 
<DataArray  type="Float64"  Name="pressure"  format="ascii">3.5850206061713403e+00  2.1901167477368064e+00  1.5653088093271119e+00  1.8031138403593332e+00  1.7176216693683111e+00  0.0000000000000000e+00  0.0000000000000000e+00  3.5850209580498573e+00  3.5554069283986180e+00  3.5262855811108094e+00  3.4976483743143532e+00  3.4694872599606836e+00  3.4417943302787530e+00  3.4145617834778048e+00  3.3877819850053332e+00  3.3614474056570534e+00  3.3355506246076141e+00  3.3100843843579839e+00  3.2850415129333488e+00  3.2604149671552842e+00  3.2361978458478369e+00  3.2123833129891493e+00  3.1889647002273653e+00  3.1659354047909245e+00  3.1432889513550824e+00  3.1210189938349426e+00  3.0991192607648319e+00  3.0775836050365366e+00  3.0564059678901407e+00  3.0355804066783247e+00  3.0151010827686262e+00  2.9949622160593323e+00  2.9751581829659699e+00  2.9556834234179528e+00  2.9365324399848070e+00  2.9176999651399802e+00  2.8991805978488188e+00  2.8809692325688028e+00  2.8630607533477845e+00  2.8454502458154045e+00  2.8281326697245106e+00  2.8111033967911796e+00  2.7943575375895824e+00  2.7778905780229413e+00  2.7616977937021345e+00  2.7457749856742972e+00  2.7301177867218649e+00  2.7147218303937568e+00  2.6995829256078889e+00  2.6846972862332255e+00  2.6700604463105502e+00  2.6556690912708576e+00  2.6415192705272204e+00  2.6276072700364503e+00  2.6139298525158323e+00  2.6004835185750212e+00  2.5872644118188677e+00  2.5742700800924618e+00  2.5614964393315294e+00  2.5489418946097393e+00  2.5366037439137616e+00  2.5244784618757001e+00  2.5125641543895414e+00  2.5008593566685926e+00  2.4893601336888915e+00  2.4780654463266680e+00  2.4669745236725231e+00  2.4560836289788841e+00  2.4453957099467099e+00  2.4349064640596643e+00  2.4246153970678068e+00  2.4145249189404385e+00  2.4046323341313673e+00  2.3949384438652244e+00  2.3854478274415842e+00  2.3761582697282528e+00  2.3670711849256301e+00  2.3581904769656710e+00  2.3495224286983261e+00  2.3410728677735952e+00  2.3328410919892564e+00  2.3248304868868765e+00  2.3170576229594686e+00  2.3095217759613633e+00  2.3022475428320015e+00  2.2952382754253300e+00  2.2885141948615648e+00  2.2820821780877814e+00  2.2759804499871850e+00  2.2702309791749888e+00  2.2648765127318806e+00  2.2599498754116083e+00  2.2555185345646098e+00  2.2516432102314665e+00  2.2484422560189503e+00  2.2459776396166848e+00  2.2444053130822006e+00  2.2439391304054292e+00  2.2447134510062638e+00  2.2468385133096072e+00  2.2505283245423375e+00  2.2520538592651027e+00  2.2700152273069873e+00  2.2370856125698744e+00  2.2757286826762027e+00  2.2886754484123850e+00  2.2911810785515683e+00  2.2809037073175480e+00  2.2599999740271968e+00  2.2295307128512576e+00  2.1906932177383798e+00  2.1448214396869498e+00  2.0939205031932291e+00  2.0242564157389973e+00  2.0222108706343804e+00  1.7089512545555687e+00  1.7773808145299244e+00  1.8011445613724935e+00  1.8151924767034162e+00  1.8230554212239400e+00  1.8285288147683900e+00  1.8324783988149556e+00  1.8342558844535048e+00  1.8325573675752858e+00  1.8260173335459859e+00  1.8123464655663484e+00  1.7910870685315270e+00  1.7764795018916222e+00  1.7703739563567060e+00  1.7719883084340056e+00  1.7805850682196240e+00  1.7951545647850851e+00  1.8144477883535666e+00  1.8373546292469247e+00  1.8613681801287365e+00  1.8844778575165710e+00  1.9052724238749315e+00  1.9225770230197543e+00  1.9356860458780540e+00  1.9443158227520554e+00  1.9485629568130429e+00  1.9487561538154354e+00  1.9452832407255680e+00  1.9386562884962091e+00  1.9294425597869735e+00  1.9180360990706669e+00  1.9049741750867049e+00  1.8906244085343249e+00  1.8752508970211743e+00  1.8591095224431897e+00  1.8424205820565005e+00  1.8253057073669445e+00  1.8078410848204880e+00  1.7901273368729971e+00  1.7722104458256644e+00  1.7541286464551891e+00  1.7359241355455279e+00  1.6989209273457815e+00  1.6799370087677137e+00  1.6608165865810947e+00  1.6414418564399293e+00  1.6220087908940695e+00  1.6023399985514097e+00  1.5825293950085217e+00  1.5626093281981930e+00  1.5425567267327582e+00  1.5224077151224564e+00  1.5021075790261493e+00  1.4816767911430870e+00  1.4611375925944206e+00  1.4404446401117517e+00  1.4196385734960826e+00  1.3986700521740978e+00  1.3775558142474689e+00  1.3562511290031818e+00  1.3348757393628146e+00  1.3132273427163643e+00  1.2914464106340071e+00  1.2694940017850238e+00  1.2472991242678158e+00  1.2249820190544318e+00  1.2022996152272214e+00  1.1796659637631850e+00  1.1565702215601079e+00  1.1333834900101647e+00  1.1099614954358623e+00  1.0863369495279602e+00  1.0624681027281229e+00  1.0383914516515738e+00  1.0140707263743154e+00  9.8946672511409617e-01  9.6469011604272437e-01  9.3963376161416690e-01  9.1436458335822268e-01  8.8882223868433374e-01  8.6305052434462703e-01  8.3702963951488041e-01  8.1076283088470447e-01  7.8423170779933626e-01  7.5745840274084653e-01  7.3042283391392859e-01  7.0316250449800310e-01  6.7559824570762173e-01  6.4779050105762492e-01  6.1975872760418049e-01  5.9142815177049024e-01  5.6276645532259806e-01  5.3407200679669042e-01  5.0476734823266101e-01  4.7551268730548690e-01  4.4575591908043860e-01  4.1571168559698912e-01  3.8566883537847840e-01  3.5498838006821781e-01  3.2426392826184680e-01  2.9315761899788062e-01  2.6177276459967103e-01  2.3007641259929351e-01  1.9809649286757808e-01  1.6598158784565098e-01  1.3333490600409065e-01  1.0036092501779968e-01  6.7127795892429537e-02  3.3760480748322032e-02  0.0000000000000000e+00  0.0000000000000000e+00  0.0000000000000000e+00  0.0000000000000000e+00  0.0000000000000000e+00  0.0000000000000000e+00  0.0000000000000000e+00  0.0000000000000000e+00  0.0000000000000000e+00  3.3897310180813246e-02  6.8281819382678535e-02  1.0191596235325882e-01  1.3576795265365083e-01  1.6943455911327354e-01  2.0299520437957927e-01  2.3643761206755562e-01  2.6977020785973066e-01  3.0299772950980181e-01  3.3611639958900308e-01  3.6911240098931852e-01  4.0200345146711219e-01  4.3478635855632880e-01  4.6745882390164434e-01  5.0003389553042787e-01  5.3249497494276810e-01  5.6484033593322125e-01  5.9708774999676806e-01  6.2922452092193948e-01  6.6125983356924345e-01  6.9318271264063203e-01  7.2500554336490797e-01  7.5673210008573422e-01  7.8836705522304362e-01  8.1988442455831345e-01  8.5126668364309599e-01  8.8257406615611755e-01  9.1372990230120321e-01  9.4481015984258887e-01  9.7580587939560914e-01  1.0067002771994122e+00  1.0375097785420013e+00  1.0680288944110945e+00  1.0987480661377869e+00  1.1291674830430640e+00  1.1592773771790883e+00  1.1894736115569688e+00  1.2193981459132694e+00  1.2492821855269440e+00  1.2787468185675037e+00  1.3082345346075666e+00  1.3373715002117383e+00  1.3662730759881414e+00  1.3948777053599164e+00  1.4231475335990325e+00  1.4509950777663052e+00  1.4784275130163731e+00  1.5054543184806422e+00  1.5318784661071598e+00  1.5577181711844315e+00  1.5829260686006505e+00  1.6076094404890608e+00  1.6312116045232308e+00  1.6542689113302449e+00  1.6763530985647186e+00  1.6974176157870953e+00  1.7173485470235561e+00  1.7360278689019071e+00  1.7532519875988029e+00  1.7689115763478918e+00  1.7829879204967389e+00  1.7956748883812073e+00  1.8071706566401142e+00  1.8179891097687988e+00  1.8287955058598548e+00  1.8404870681460510e+00  1.8534545930240471e+00  1.8683941464177449e+00  1.8856841612480326e+00  1.9055568607478721e+00  1.9283766137819269e+00  1.9538878112998139e+00  1.9822393895714929e+00  2.0131802911347343e+00  2.0467883732360481e+00  2.0818466263572564e+00  2.1182609865531656e+00  2.1552813091834073e+00  2.1921018271249393e+00  2.2290451093794159e+00  2.2653854250452472e+00  2.3012474291727352e+00  2.3366209453999391e+00  2.3715179815983141e+00  2.4060504394232396e+00  2.4402667262425508e+00  2.4742184265413267e+00  2.5079682786314312e+00  2.5415388409411279e+00  2.5749546560274172e+00  2.6082258648354140e+00  2.6413652674134247e+00  2.6743812106472840e+00  2.7072789942955908e+00  2.7400619033348006e+00  2.7727322821806015e+00  2.8052925814973806e+00  2.8377430072127758e+00  2.8700851624396639e+00  2.9023191673053241e+00  2.9344460163595940e+00  2.9664661525241276e+00  2.9983799455546030e+00  3.0301878155836897e+00  3.0618901460532948e+00  3.0934873173672996e+00  3.1249797144114524e+00  3.1563676205443616e+00  3.1876514300125516e+00  3.2188314567570666e+00  3.2499080784994776e+00  3.2808815884562588e+00  3.3117523422154393e+00  3.3425206944166423e+00  3.3731869695070258e+00  3.4037515117908730e+00  3.4342146288947442e+00  3.4645766885645934e+00  3.4948380288645553e+00  3.5249989504749859e+00  3.5550598186545730e+00  3.5850209623758262e+00  3.5850209542054232e+00  3.5850209198067353e+00  3.5850208589694210e+00  3.5850207820113718e+00  3.5850207051626173e+00  3.5850206443788717e+00  3.5850206101210511e+00  3.5850206020777269e+00  1.8470009194007444e+00  1.7590252622947093e+00  2.2594728939545736e+00  2.2417869868878926e+00  2.2057710783749966e+00  2.2488543073467278e+00  2.2724457851195288e+00  2.3054792559737707e+00  2.3460358397308423e+00  2.3896906518141416e+00  2.4298594218426071e+00  2.4728212241956729e+00  2.5184699640504276e+00  2.5675841063487099e+00  2.6207567604640065e+00  2.6766061002184389e+00  2.7379724804863352e+00  1.9230676960557773e+00  1.9427636589902122e+00  1.9086477719516515e+00  1.8480114096242271e+00  1.7799586624850674e+00  1.7064708237112172e+00  1.9756771826945367e+00  1.9243307347383412e+00  1.6313263462601377e+00  1.5554791038464759e+00  1.4718177152247640e+00  1.8166575212121632e+00  1.3855231415462161e+00  1.3049489172219335e+00  2.8022066371758645e+00  1.2137291477264835e+00  1.8512407201918020e+00  1.8028632337921560e+00  1.1177588054507586e+00  1.7448317089137446e+00  2.8730583287471956e+00  1.6456453518554590e+00  1.0276002092025649e+00  2.9428184830272484e+00  1.7904964176967748e+00  9.2701399208288282e-01  1.5179136943896760e+00  2.0011067053709808e+00  3.0230474615286567e+00  8.2389664888648451e-01  1.3515958535035086e+00  3.1115471944068207e+00  1.2655573053469031e+00  7.1676987265478687e-01  1.1722790918646595e+00  2.1358455013185780e+00  6.0234363851496131e-01  3.2006738511941601e+00  1.0825958105110731e+00  2.2479975384291846e+00  2.3578694770585646e+00  9.9037491430415137e-01  4.9089055151694794e-01  3.3000486497189110e+00  3.3740269548386510e+00  1.4368288846467527e+00  4.0089081204890936e-01  3.0539929763042961e-01  2.4894916793123003e+00  8.9728493275586940e-01  7.7037586667426794e-01  2.5928856247340564e+00  2.2430035603698175e+00  2.2795508218284661e+00  2.6899259517192058e+00  6.7695755600459795e-01  2.1563919034663112e-01  2.8170888732581103e+00  5.4867166083822561e-01  2.9815423557601410e+00  4.5125239303872811e-01  3.1406740075720423e+00  3.5291561558974793e-01  3.2338598351615473e+00  3.4183298379814655e+00  3.3278624840129809e+00  2.5318803714027399e-01  3.5598121662465805e+00  3.1372879757155116e-02  3.4565889413839952e+00  1.8210367476390854e+00  1.5566786071952007e-01  1.1420842727222220e-01  1.8044619112467235e+00  1.7804571587008045e+00  2.0645442702180303e+00  1.8833905594833689e+00  2.4224085411022633e+00  2.7566116340059481e+00  2.8846563166205295e+00  3.0497423607519627e+00  1.5948186404923685e+00  1.7069812207975223e+00  1.7755101518532508e+00  1.8260606800751895e+00  3.2483062995818988e+00  3.1550175017290232e+00  8.3551770328847308e-01  6.1325343108244657e-01  3.0693120157803513e+00  5.4993640579690162e-01  3.4792238643328925e+00  6.6027511373682757e-01  7.7084552868701850e-01  2.9835429361726251e+00  8.7595205180185676e-01  3.5596329034963681e+00  9.7778791744411653e-01  2.9089392240826486e+00  1.0778347997086635e+00  1.1653426939078004e+00  1.6699227323391201e+00  1.2605653347270125e+00  2.8361277571347787e+00  1.3456016144154119e+00  1.4300692783215725e+00  1.5132520725336700e+00  2.7692424639276374e+00  1.5911761837851599e+00  2.6537460454680618e-02  2.7071548827094567e+00  2.6483930061954504e+00  2.5927262197169236e+00  2.5441567672432472e+00  2.4942899941930099e+00  2.4505690062490006e+00  2.4084400011432678e+00  2.3624325767573486e+00  1.8904332244703803e+00  2.3206245166165069e+00  2.2845487288609529e+00  2.2567992050198868e+00  1.9411520605763628e+00  2.2421774733286712e+00  1.8810600700709947e+00  1.9297865764268636e+00  1.8174560721413373e+00  1.7440780588392488e+00  3.5617952598679312e+00  2.1126754166246506e+00  3.1694202022646410e-02  3.5117738070912012e+00  8.4822276147505371e-02  1.7939625832762713e+00  2.6521152358732144e-02  3.5624048836844104e+00  1.7849123056119998e+00  1.7871751237308728e+00  1.7829908588116563e+00  1.7834176659163534e+00  1.7787703158099506e+00  1.7748767617062553e+00  1.7706933931608797e+00  1.7635531325545339e+00  1.7601716948850377e+00  1.7506589045610230e+00  1.7494693638428840e+00  1.7386867315191059e+00  1.7409492014291399e+00  1.7306978474468344e+00  1.7368287167999428e+00  1.7293352478820831e+00  1.7399371506755001e+00  1.7366790265852781e+00  1.7515382408011575e+00  1.7560906477020659e+00  1.7725150507063672e+00  1.7479044224045850e+00  1.7736020908291155e+00  1.7945862464179572e+00  1.7739776908527283e+00  1.7733666187054136e+00  1.8031472679336686e+00  1.8215779903523064e+00  1.8311255437917806e+00  1.8475182725743233e+00  1.8600064025213050e+00  1.8704675306373557e+00  1.8843426335482103e+00  1.8882301961425501e+00  1.9026615401024696e+00  1.8989572118002733e+00  1.9132522613292458e+00  1.9062708900347134e+00  1.9171324905400653e+00  1.9056626238871155e+00  1.9145273244687433e+00  1.8971922708544693e+00  1.9062777019096500e+00  1.8893291555269753e+00  1.8948490111637486e+00  1.8766520036208392e+00  1.8805002556173995e+00  1.8620471426528777e+00  1.8644037170458385e+00  1.8458570590785277e+00  1.8463767587596658e+00  1.8039837433199899e+00  1.8146329364236473e+00  1.8287396989554818e+00  1.8286257308586646e+00  1.8111811959693758e+00  1.8088707854297432e+00  1.7929812393571745e+00  1.7904488730707642e+00  1.7742784207734195e+00  1.7709719970910971e+00  1.7551090734945187e+00  1.7508560296175546e+00  1.8209575031667176e+00  1.7354688123795010e+00  1.7302724162326182e+00  1.7153543368534088e+00  1.7093250337939949e+00  1.6948205532031146e+00  1.6880553825782250e+00  1.8419064529439126e+00  1.8583843830372262e+00  1.7337200901788301e+00  1.6739074510376137e+00  1.6663264384198122e+00  1.7942983809277595e+00  1.6526754861974622e+00  1.6443182144403030e+00  1.6310266449554744e+00  1.6220478405577337e+00  1.6091028261450864e+00  1.5994066354646699e+00  1.8760293801224077e+00  1.5868304706851613e+00  1.5765182377662941e+00  1.5642475289917614e+00  1.5533827378255618e+00  1.5413648097362473e+00  1.5299680995476213e+00  1.7510567553674161e+00  1.8961088343626511e+00  1.5181645305882725e+00  1.5063615286981322e+00  1.8822570611916156e+00  1.9012452831728943e+00  1.8688438623628445e+00  1.8701494141761452e+00  1.4947035162433084e+00  1.4820432132434245e+00  1.4708694269315779e+00  1.4575697816811046e+00  1.4467482632669342e+00  1.4335039661708100e+00  1.6802905459762818e+00  1.4932237085624485e+00  1.6125646922985788e+00  1.7454003994985861e+00  1.4225309290738550e+00  1.4092517767774748e+00  1.4204065006849269e+00  1.3962443679877308e+00  1.3848106603580781e+00  1.3720548681581706e+00  1.3601942158399534e+00  1.3471294269026381e+00  1.3352668773038907e+00  1.3216508322131311e+00  1.3101096117790210e+00  1.2962788087997890e+00  1.2847313505029581e+00  1.2707510286207937e+00  1.2592145399369092e+00  1.2450295218377891e+00  1.2333490227209545e+00  1.2190787257131275e+00  1.2073008482429817e+00  1.1928275191863058e+00  1.1810311809569871e+00  1.1664761806123085e+00  1.1546019298688897e+00  1.1398599173583008e+00  1.8052408690572663e+00  1.8270595646439083e+00  1.1279155386307196e+00  1.1131504576832647e+00  1.1009852355555305e+00  1.0860545864704596e+00  1.8773320946161902e+00  1.0735617613649735e+00  1.0587666892389995e+00  1.8975691422766001e+00  1.9255030879936739e+00  1.9221216465226605e+00  1.9513537262638516e+00  1.9377070392212568e+00  1.9753583476327934e+00  1.9739533318460860e+00  2.0071673831267480e+00  2.0109364161848049e+00  2.0399753957288076e+00  2.0485508741951355e+00  2.0702490738211776e+00  2.0832109668174610e+00  2.0979953654631265e+00  2.1137228132989909e+00  2.1248242893337870e+00  2.1431814403220391e+00  2.1494893251127283e+00  2.1645177038325638e+00  2.1706309175065681e+00  2.1824359382839007e+00  2.1901699447855933e+00  2.2001634207017338e+00  2.2078454999784958e+00  2.2170236934090113e+00  2.2249092061012865e+00  2.2333443872805896e+00  2.2413312247538961e+00  2.2497035267900731e+00  2.2582940093718991e+00  2.2003479739721796e+00  2.2500222328946515e+00  2.2673082390700685e+00  2.2752797981114585e+00  2.2844217561137126e+00  2.2918134252162425e+00  2.3013258512851533e+00  2.3073584171538526e+00  2.3179271622697200e+00  2.2939026949765582e+00  2.3227976619008754e+00  2.3343796922457574e+00  2.3411228589921489e+00  2.3517442801038291e+00  2.3448973118249796e+00  2.3624884603427825e+00  2.3691156964942883e+00  2.3800691515608228e+00  2.3866692184300144e+00  2.3975999004055595e+00  1.9760435596319832e+00  2.4042163325628647e+00  2.4155612490410587e+00  2.4089991802709947e+00  2.4273196310621099e+00  2.4335892694326668e+00  2.4456390695711554e+00  2.4515868246355677e+00  2.4638466834521844e+00  2.1322197334936956e+00  2.1369370018780649e+00  2.0640629209166201e+00  2.1780199700566305e+00  2.4704813631603182e+00  2.4823591503301765e+00  2.4762966159336877e+00  2.4952776139275907e+00  2.5008991542106980e+00  2.5142289967493507e+00  2.5196645431188114e+00  2.5332922369413624e+00  2.5276743116632159e+00  2.5472113154229152e+00  2.5528414137175912e+00  2.5668286428001181e+00  2.3551030856539801e+00  2.5724388740465107e+00  2.5862937023866213e+00  2.2099434596095495e+00  2.0588148606672840e+00  2.4202758938297233e+00  2.2422033885840515e+00  2.5916958293776480e+00  2.6061790598322934e+00  2.5993770106349126e+00  2.6206820778768956e+00  2.6257687842191344e+00  2.6412751737854920e+00  2.6360563157681991e+00  2.6568867590812677e+00  2.6618097408701242e+00  2.6775781918405941e+00  2.2977618779380138e+00  2.6822200639135154e+00  2.6985028353569143e+00  2.5426940401635121e+00  2.3782599234530717e+00  1.7766425886092294e+00  2.3317355048345059e+00  2.6937093848745293e+00  2.7148877267096938e+00  2.7194248554870901e+00  2.7359452247334364e+00  1.0462111635569293e+00  1.0314805954679425e+00  1.0189723162475637e+00  1.0037832048247790e+00  9.9126292897376655e-01  9.7587715608064429e-01  2.7410867306384787e+00  2.7575020958000960e+00  1.6808479161407868e+00  2.7528972905414242e+00  2.7744136449872281e+00  2.7782007855895916e+00  2.7957120306575600e+00  1.7707997765659247e+00  1.9903343394539676e+00  2.4396058393307745e+00  1.2823693003428869e+00  9.6329433318318236e-01  9.4801118038688104e-01  1.4076929620894580e+00  1.1525166562883205e+00  9.6059087925759346e-01  9.3288261027651143e-01  9.2005255018283993e-01  9.0490162747881520e-01  8.9194203918973736e-01  8.7666707893021911e-01  8.6365935504737790e-01  8.4867212305109785e-01  8.3524537663724252e-01  8.2018313811595378e-01  8.0660515325122095e-01  7.9110191311143496e-01  7.7773022487527510e-01  7.6208757892488521e-01  7.4864077901343440e-01  7.3291857807708782e-01  7.1971664568771265e-01  7.0360880865534225e-01  6.9029282856830898e-01  6.7405852612105277e-01  6.6028955842937387e-01  6.4422954042393821e-01  6.3038036926002783e-01  6.1423578672358803e-01  2.7993700550157428e+00  2.8170698565623580e+00  2.8147586938236162e+00  2.8355153507831203e+00  2.8387433748510094e+00  2.8569799834530913e+00  6.0027682383908387e-01  5.8403990841255482e-01  5.6991138602048108e-01  5.5363521462009269e-01  5.3730883504246951e-01  5.2268582725159174e-01  1.0433213358388227e+00  2.8520081084107747e+00  2.8755955642319404e+00  2.8797198242096198e+00  2.8984883891412641e+00  2.5069987270871299e+00  2.5245462868035067e+00  2.8951579446534104e+00  2.9177705966340142e+00  2.9203327043314387e+00  2.9400502142214289e+00  2.9424995866516563e+00  2.9623082447920188e+00  2.959868386