<?xml version="1.0"?>
<VTKFile type="UnstructuredGrid"  version="0.1"  >
<UnstructuredGrid>
<Piece  NumberOfPoints="2705" NumberOfCells="5060">
<Points>
<DataArray  type="Float64"  NumberOfComponents="3"  format="ascii">0 0.1 0  0.98 0.1 0  1 0.1 0  1 0 0  3 0 0  3 0.3 0  0 0.3 0  0.01975375321854102 0.1 0  0.03918897458218897 0.1 0  0.05831079002627837 0.1 0  0.07712425666319796 0.1 0  0.0956343475259058 0.1 0  0.1138459546796227 0.1 0  0.1317638870668193 0.1 0  0.1493928840275937 0.1 0  0.1667376092280033 0.1 0  0.1838026357802664 0.1 0  0.2005924801287244 0.1 0  0.2171115811543574 0.1 0  0.2333643037107681 0.1 0  0.2493549444060462 0.1 0  0.2650877293306821 0.1 0  0.2805668058011438 0.1 0  0.2957962848620976 0.1 0  0.3107801766802674 0.1 0  0.3255224447361181 0.1 0  0.3400269848175519 0.1 0  0.3542976327080778 0.1 0  0.3683381609158136 0.1 0  0.3821522744564845 0.1 0  0.3957436316838916 0.1 0  0.4091158196437086 0.1 0  0.4222723742184605 0.1 0  0.4352167733293057 0.1 0  0.4479524348643424 0.1 0  0.4604827295467524 0.1 0  0.4728109659990664 0.1 0  0.4849404035409129 0.1 0  0.4968742471455402 0.1 0  0.508615651843175 0.1 0  0.520167721130924 0.1 0  0.5315335063628542 0.1 0  0.5427160117228604 0.1 0  0.5537181940261912 0.1 0  0.564542961924507 0.1 0  0.575193173270606 0.1 0  0.5856716438765114 0.1 0  0.5959811458006617 0.1 0  0.6061243988680743 0.1 0  0.6161040893285659 0.1 0  0.6259228503970299 0.1 0  0.6355832809287655 0.1 0  0.6450879281079505 0.1 0  0.6544393102991295 0.1 0  0.663639896558931 0.1 0  0.6726921201956305 0.1 0  0.6815983691630338 0.1 0  0.6903610031396646 0.1 0  0.6989823343332418 0.1 0  0.7074646404270378 0.1 0  0.7158101645005117 0.1 0  0.7240211149852543 0.1 0  0.7320996585612525 0.1 0  0.7400479319727645 0.1 0  0.7478680336617921 0.1 0  0.755562036504958 0.1 0  0.7631319665092091 0.1 0  0.7705798279317605 0.1 0  0.777907588066146 0.1 0  0.7851171851013118 0.1 0  0.7922105226004981 0.1 0  0.7991894774550319 0.1 0  0.8060558928136696 0.1 0  0.812811583201334 0.1 0  0.8194583352091183 0.1 0  0.8259979035038147 0.1 0  0.8324320194413813 0.1 0  0.8387623808293405 0.1 0  0.8449906627004957 0.1 0  0.8511185094880469 0.1 0  0.8571475426008311 0.1 0  0.8630793533568246 0.1 0  0.8689155114558531 0.1 0  0.8746575581239063 0.1 0  0.8803070109173519 0.1 0  0.885865363938836 0.1 0  0.8913340851680313 0.1 0  0.8967146206523592 0.1 0  0.9020083930695622 0.1 0  0.9072167995950768 0.1 0  0.9123412183131177 0.1 0  0.9173830029719022 0.1 0  0.9223434865647732 0.1 0  0.9272239785872722 0.1 0  0.9320257720706087 0.1 0  0.9367501330378739 0.1 0  0.9413983102716995 0.1 0  0.9459715351562933 0.1 0  0.9504710127113115 0.1 0  0.9548979346500661 0.1 0  0.9592534708344373 0.1 0  0.9635387708980176 0.1 0  0.9677549682252325 0.1 0  0.971903177251235 0.1 0  0.9759844952956497 0.1 0  0.9840000000000086 0.1 0  0.987999999999974 0.1 0  0.9919999999999393 0.1 0  0.9959999999999913 0.1 0  1 0.09591793123533533 0  1 0.09133596463859224 0  1 0.08619288104391448 0  1 0.08041996484521211 0  1 0.07394008421771697 0  1 0.06666666567302955 0  1 0.05850252932209174 0  1 0.04933859630113544 0  1 0.03905242821848202 0  1 0.02750659386753798 0  1 0.01454683679239736 0  1.016020550394751 0 0  1.032153385236268 0 0  1.048399294954455 0 0  1.064759072477566 0 0  1.081233515533994 0 0  1.097823427949778 0 0  1.114529617202262 0 0  1.131352900433151 0 0  1.148294101583001 0 0  1.165354040242892 0 0  1.182533552515274 0 0  1.199833475866261 0 0  1.217254652230041 0 0  1.234797936155386 0 0  1.252464178425587 0 0  1.270254255168802 0 0  1.288169006479837 0 0  1.306209325437119 0 0  1.324376095845444 0 0  1.342670189274758 0 0  1.36109251192469 0 0  1.379643952662183 0 0  1.398325417002887 0 0  1.41713782425084 0 0  1.436082080652155 0 0  1.455159124826087 0 0  1.474369882349725 0 0  1.493715277083147 0 0  1.513196265767424 0 0  1.532813806019548 0 0  1.552568842185085 0 0  1.572462339217603 0 0  1.592495269056204 0 0  1.612668607023916 0 0  1.632983343549927 0 0  1.653440462592259 0 0  1.674040969525434 0 0  1.694785855791528 0 0  1.715676155173469 0 0  1.73671286736412 0 0  1.757897026351256 0 0  1.779229664888713 0 0  1.800711824755784 0 0  1.82234455324737 0 0  1.84412890624001 0 0  1.866065945376083 0 0  1.888156733760833 0 0  1.910402369606354 0 0  1.93280391688052 0 0  1.955362477143487 0 0  1.978079144436244 0 0  2.000955036197599 0 0  2.023991269446432 0 0  2.047188964767926 0 0  2.0705492490968 0 0  2.094073263768322 0 0  2.117762156205791 0 0  2.141617082624289 0 0  2.16563921705895 0 0  2.189829717267639 0 0  2.214189770072521 0 0  2.238720556051706 0 0  2.263423288009975 0 0  2.288299155588418 0 0  2.313349376228164 0 0  2.338575176964319 0 0  2.363977783618623 0 0  2.389558433680938 0 0  2.415318384393194 0 0  2.441258882154933 0 0  2.467381196024248 0 0  2.493686599690135 0 0  2.520176385407638 0 0  2.546851827526312 0 0  2.573714242586076 0 0  2.600764942577301 0 0  2.628005231328753 0 0  2.655436452882501 0 0  2.683059932630583 0 0  2.710877029970518 0 0  2.73888909859219 0 0  2.767097496229523 0 0  2.79550361535459 0 0  2.824108829114479 0 0  2.852914536031111 0 0  2.881922140827726 0 0  2.911133056443728 0 0  2.940548720418847 0 0  2.970170550362583 0 0  3 0.02999999999994495 0  3 0.05999999999987042 0  3 0.089999999999783 0  3 0.119999999999701 0  3 0.149999999999619 0  3 0.179999999999692 0  3 0.2099999999997737 0  3 0.2399999999998511 0  3 0.2699999999999185 0  2.970138294777171 0.3 0  2.940375666438236 0.3 0  2.910711782853056 0.3 0  2.881146331305122 0.3 0  2.851678975030285 0.3 0  2.822309388626621 0.3 0  2.793037250095074 0.3 0  2.76386223529133 0.3 0  2.734784017903872 0.3 0  2.705802289276642 0.3 0  2.676916713794697 0.3 0  2.648126987654635 0.3 0  2.619432780406184 0.3 0  2.590833779385199 0.3 0  2.562329669847737 0.3 0  2.533920134950189 0.3 0  2.505604855727852 0.3 0  2.477383539822502 0.3 0  2.449255847639465 0.3 0  2.421221492569094 0.3 0  2.393280152486815 0.3 0  2.36543151914496 0.3 0  2.337675285481809 0.3 0  2.310011142385583 0.3 0  2.282438797441587 0.3 0  2.254957931061538 0.3 0  2.227568248063605 0.3 0  2.200269436651085 0.3 0  2.173061204949961 0.3 0  2.145943251515011 0.3 0  2.118915272469994 0.3 0  2.091976978084957 0.3 0  2.065128060700849 0.3 0  2.038368218849433 0.3 0  2.01169717777258 0.3 0  1.985114624111908 0.3 0  1.958620267850966 0.3 0  1.93221382054972 0.3 0  1.905894991850698 0.3 0  1.879663489459713 0.3 0  1.853519019126419 0.3 0  1.827461291053897 0.3 0  1.801490031354372 0.3 0  1.775604937580312 0.3 0  1.74980572560258 0.3 0  1.724092118631866 0.3 0  1.698463829173586 0.3 0  1.672920575782554 0.3 0  1.647462076974085 0.3 0  1.622088043536933 0.3 0  1.5967981978949 0.3 0  1.571592267767068 0.3 0  1.546469970305736 0.3 0  1.521431023814044 0.3 0  1.496475156230927 0.3 0  1.471602093687753 0.3 0  1.446811560490646 0.3 0  1.422103279101731 0.3 0  1.397476971708191 0.3 0  1.37293238939876 0.3 0  1.348469231419202 0.3 0  1.324087248732772 0.3 0  1.299786165921677 0.3 0  1.275565710847046 0.3 0  1.251425617644257 0.3 0  1.227365618676339 0.3 0  1.203385446174014 0.3 0  1.179484853067473 0.3 0  1.155663548773374 0.3 0  1.131921292279077 0.3 0  1.108257802159295 0.3 0  1.084672829009693 0.3 0  1.061166115303374 0.3 0  1.037737392995421 0.3 0  1.01438640299116 0.3 0  0.991112899770314 0.3 0  0.9679166155523955 0.3 0  0.944797284182564 0.3 0  0.921754678526042 0.3 0  0.8987885143602501 0.3 0  0.8758985548820624 0.3 0  0.8530845484099929 0.3 0  0.8303462351786988 0.3 0  0.8076833651172373 0.3 0  0.7850956864865304 0.3 0  0.7625829601354557 0.3 0  0.7401449314598274 0.3 0  0.717781337993959 0.3 0  0.6954919649675473 0.3 0  0.6732765357561226 0.3 0  0.6511348120768439 0.3 0  0.6290665642016573 0.3 0  0.6070715355430467 0.3 0  0.5851494825775325 0.3 0  0.5633001690203812 0.3 0  0.5415233562273221 0.3 0  0.5198187909431873 0.3 0  0.4981862401387795 0.3 0  0.4766254686134248 0.3 0  0.4551362360485234 0.3 0  0.4337182975262159 0.3 0  0.4123714223228037 0.3 0  0.3910953802377493 0.3 0  0.3698899313205595 0.3 0  0.3487548463710963 0.3 0  0.3276898864081783 0.3 0  0.3066948129116018 0.3 0  0.2857694003037476 0.3 0  0.2649134227095047 0.3 0  0.2441266417321288 0.3 0  0.2234088223399122 0.3 0  0.2027597568977288 0.3 0  0.1821792020676698 0.3 0  0.1616669305402443 0.3 0  0.1412227158799362 0.3 0  0.12084633013886 0.3 0  0.1005375673448281 0.3 0  0.08029618164595353 0.3 0  0.06012194778526769 0.3 0  0.04001466495039718 0.3 0  0.01997408913631205 0.3 0  0 0.2800000000000553 0  0 0.2600000000001105 0  0 0.2400000000001658 0  0 0.2200000000002211 0  0 0.2000000000002764 0  0 0.1800000000002244 0  0 0.1600000000001691 0  0 0.140000000000115 0  0 0.1200000000000564 0  1.139147342155451 0.01402312796110374 0  1.003846432965526 0.09424410338552042 0  0.9779237415493457 0.10303715329271 0  0.9525322729471357 0.1037883113413676 0  0.9297268847131464 0.1045730213771781 0  0.9046089814431624 0.104336569409788 0  0.877471620806838 0.1038902524152954 0  0.8484650538876116 0.1052432520737866 0  0.8159640469246969 0.1059371394421246 0  0.7886638538509052 0.1060934813339016 0  0.7587098578963086 0.1078079872398564 0  0.7267218807318911 0.1066246423921731 0  0.6933049262001144 0.1065261986562333 0  0.6579684410383846 0.1078243939978959 0  0.6214208701021879 0.1087048760815267 0  0.9941749516486179 0.1037853116611355 0  1.120978489398116 0.279674477539142 0  1.208544064048151 0.01503467720016028 0  1.277910333952869 0.01779594515292307 0  1.351715717346224 0.01850593010538557 0  1.427966398080389 0.0186283585208804 0  1.50319238505989 0.01550695005010656 0  0.5804324085735586 0.1090014561521007 0  1.005955353234479 0.07030337494537306 0  1.582478804136902 0.01728864997636526 0  0.5372897138364388 0.1092087118973372 0  1.663740716058847 0.0177784735569346 0  0.4914692535170423 0.110729061919444 0  1.747243287282295 0.01944243088977818 0  1.238974330067154 0.2790657993464123 0  1.834291106016765 0.02121111407792533 0  0.44060840912
[...]
<PointData  Scalars="pressure"> 
<DataArray  type="Float64"  Name="pressure"  format="ascii">1.9515415960543842e-01  -1.3881638258752396e-01  -2.0456865036771699e-01  -1.3843895503979309e-01  0.0000000000000000e+00  0.0000000000000000e+00  1.9515999479613175e-01  1.8922803468563848e-01  1.8339741218033714e-01  1.7766073560598036e-01  1.7201647086894017e-01  1.6646312015598622e-01  1.6099920739023152e-01  1.5562325463724527e-01  1.5033387698565290e-01  1.4512959931074074e-01  1.4000908311775970e-01  1.3497095278921170e-01  1.3001379682537823e-01  1.2513633460131704e-01  1.2033725230584921e-01  1.1561520449250168e-01  1.1096896396006864e-01  1.0639726398438432e-01  1.0189876209303958e-01  9.7472343606904974e-02  9.3116730079310595e-02  8.8830668685662639e-02  8.4613085901059273e-02  8.0462687420345541e-02  7.6378384879810857e-02  7.2359012280574259e-02  6.8403392225217768e-02  6.4510394659653914e-02  6.0678927747931551e-02  5.6907870915864585e-02  5.3196134381782868e-02  4.9542579195686949e-02  4.5946200490311409e-02  4.2405868401825447e-02  3.8920543956213034e-02  3.5489170407193023e-02  3.2110657216740314e-02  2.8784025981303731e-02  2.5508178754565410e-02  2.2282183833984531e-02  1.9104920825931293e-02  1.5975468218718591e-02  1.2892725434645005e-02  9.8558028318292221e-03  6.8636837114630462e-03  3.9152764987070432e-03  1.0096714751595627e-03  -1.8540370768378189e-03  -4.6767771999550456e-03  -7.4597849357021908e-03  -1.0203583390498126e-02  -1.2909316758254189e-02  -1.5578344384936703e-02  -1.8211017983694559e-02  -2.0807941869210880e-02  -2.3370820932277225e-02  -2.5900818421403422e-02  -2.8397475505908546e-02  -3.0862302693075706e-02  -3.3297041021921575e-02  -3.5701461107388935e-02  -3.8076593745251665e-02  -4.0423405750708609e-02  -4.2742857076487228e-02  -4.5035560946635689e-02  -4.7302723764317510e-02  -4.9544487800053813e-02  -5.1762061103237847e-02  -5.3956088226888382e-02  -5.6127396523751136e-02  -5.8276568023744785e-02  -6.0404209251651818e-02  -6.2511595534496686e-02  -6.4598451639929846e-02  -6.6666375575261463e-02  -6.8715714900437000e-02  -7.0747005741789451e-02  -7.2759896575585653e-02  -7.4756097031988863e-02  -7.6736338171335322e-02  -7.8700434517706794e-02  -8.0648856197298835e-02  -8.2581829185618724e-02  -8.4500537601208292e-02  -8.6404134446326192e-02  -8.8293461529733178e-02  -9.0168869854904993e-02  -9.2029834241075067e-02  -9.3875845832764551e-02  -9.5708184423877671e-02  -9.7523142943073196e-02  -9.9324226308218036e-02  -1.0110697800587409e-01  -1.0286955840146256e-01  -1.0461302014994724e-01  -1.0632447655258687e-01  -1.0795475179451981e-01  -1.1025246075611403e-01  -1.0835122595797690e-01  -1.0831218463574395e-01  -9.2671878255034285e-02  -9.8778046623298935e-02  -1.0305918968175461e-01  -1.8423321894824868e-01  -1.6258129830580831e-01  -1.5449523489960229e-01  -1.4927667394451913e-01  -1.4560214136054639e-01  -1.4284434700411167e-01  -1.4074241480699753e-01  -1.3917588604383194e-01  -1.3818712241125233e-01  -1.3782798301670765e-01  -1.3814073404908994e-01  -1.3878668278468839e-01  -1.3900036556019563e-01  -1.3849803812170133e-01  -1.3751185757761078e-01  -1.3613834557410842e-01  -1.3452875166248193e-01  -1.3269262474686461e-01  -1.3067401671277493e-01  -1.2847104903318901e-01  -1.2606645109913325e-01  -1.2341530415835072e-01  -1.2045677018746277e-01  -1.1711846096359292e-01  -1.1334143984268540e-01  -1.0907052984161103e-01  -1.0426168715700422e-01  -9.8918975243362073e-02  -9.3077105915821440e-02  -8.6790903803302052e-02  -8.0149766392446933e-02  -7.3249064762413107e-02  -6.6215414766205349e-02  -5.9165808935038353e-02  -5.2191606895355992e-02  -4.5374523598298813e-02  -3.8783737805413054e-02  -3.2442752895035461e-02  -2.6339776071642566e-02  -2.0459746304800682e-02  -1.4768421767838718e-02  -9.2235498351305161e-03  -3.7901026311815945e-03  1.5425456013551887e-03  6.7724223765305855e-03  1.1873663363080364e-02  1.6792185417649708e-02  2.1454713777501525e-02  2.5784943255677133e-02  2.9700599115919987e-02  3.3145658698359982e-02  3.6072272572909542e-02  3.8454294260858161e-02  4.0323373561680226e-02  4.1710033149135885e-02  4.2690132971900947e-02  4.3357638402088727e-02  4.3786792363917283e-02  4.4075728751118856e-02  4.4294573006969026e-02  4.4492758110632587e-02  4.4694288072531875e-02  4.4890990289476525e-02  4.5051249629111473e-02  4.5141323372819141e-02  4.5106178094389097e-02  4.4904627247418033e-02  4.4509835074580749e-02  4.3912435221500394e-02  4.3127757719526656e-02  4.2192161693119651e-02  4.1163314519188372e-02  4.0097918867372587e-02  3.9050659313481395e-02  3.8066657623385937e-02  3.7167734807368825e-02  3.6349349936836944e-02  3.5587003544836501e-02  3.4830190978861635e-02  3.4029092880465732e-02  3.3129873444376325e-02  3.2093156824594751e-02  3.0898022806701248e-02  2.9553633105005236e-02  2.8083125175008539e-02  2.6524444804261724e-02  2.4937115294219821e-02  2.3359440279090218e-02  2.1812795422619328e-02  2.0312276620243461e-02  1.8839826078520226e-02  1.7357805468953803e-02  1.5830152533105643e-02  1.4212293899745545e-02  1.2466742744198969e-02  1.0598946364947019e-02  8.6051320619488399e-03  6.5095036647283078e-03  4.3741379654740143e-03  2.1919023019214869e-03  0.0000000000000000e+00  0.0000000000000000e+00  0.0000000000000000e+00  0.0000000000000000e+00  0.0000000000000000e+00  0.0000000000000000e+00  0.0000000000000000e+00  0.0000000000000000e+00  0.0000000000000000e+00  2.2821719047578879e-03  4.3751524135150106e-03  6.3933202623064414e-03  8.3689334018965736e-03  1.0339647337456567e-02  1.2334838034471609e-02  1.4365220510189335e-02  1.6413839513495437e-02  1.8438712236590743e-02  2.0394376862082304e-02  2.2221023691752939e-02  2.3882451557751660e-02  2.5356580351172733e-02  2.6652784019496844e-02  2.7807483372953194e-02  2.8873800048635687e-02  2.9908273940772327e-02  3.0958710687511881e-02  3.2044637820762827e-02  3.3150331419826276e-02  3.4232584791162209e-02  3.5215637621964585e-02  3.6017814131339400e-02  3.6563615456237750e-02  3.6803255640515092e-02  3.6721254593544549e-02  3.6347270111309622e-02  3.5744291691830882e-02  3.4990974542557854e-02  3.4174453697496471e-02  3.3352749455352416e-02  3.2550418535257176e-02  3.1745561949658496e-02  3.0869576474264554e-02  2.9823140518945458e-02  2.8499453892254365e-02  2.6806751126453521e-02  2.4693076941179018e-02  2.2153000438559486e-02  1.9242745529679139e-02  1.6050634512998062e-02  1.2700316755524760e-02  9.3105336253708794e-03  5.9518970778122673e-03  2.6679617179629703e-03  -5.7320113620102514e-04  -3.8232723506486394e-03  -7.2098610898085501e-03  -1.0834191041785702e-02  -1.4780571006527864e-02  -1.9095513247769529e-02  -2.3771779062317061e-02  -2.8756611594838312e-02  -3.3967870750876678e-02  -3.9298319509038726e-02  -4.4659063782340691e-02  -4.9883758061867782e-02  -5.4981324308148623e-02  -5.9878109206963875e-02  -6.4530011702693624e-02  -6.8966440813504531e-02  -7.3160821413242830e-02  -7.7150891271728153e-02  -8.0911266352529390e-02  -8.4403750846752557e-02  -8.7599384444617664e-02  -9.0424836667934216e-02  -9.2800296951358691e-02  -9.4624147116933455e-02  -9.5794619227802788e-02  -9.6235595910954527e-02  -9.5814034992498048e-02  -9.4648174293938958e-02  -9.2678014884965229e-02  -9.0071679339516930e-02  -8.6563445808501407e-02  -8.2579290511681960e-02  -7.8014962970968993e-02  -7.3058982672952244e-02  -6.7736672621850944e-02  -6.2160744701190568e-02  -5.6338334882135771e-02  -5.0368387105439227e-02  -4.4260191944339028e-02  -3.8027545731553820e-02  -3.1722714569363139e-02  -2.5355125828906332e-02  -1.8941036679829475e-02  -1.2488153040284477e-02  -6.0146860735517064e-03  4.7326898120076332e-04  6.9682757673380693e-03  1.3466401606148532e-02  1.9960870797118155e-02  2.6450277456934557e-02  3.2929595642552524e-02  3.9397017266401713e-02  4.5851911690406991e-02  5.2291858485219785e-02  5.8715372800275806e-02  6.5121962944011944e-02  7.1511198273134707e-02  7.7881698885893108e-02  8.4233298788509062e-02  9.0565746809540812e-02  9.6878731701478107e-02  1.0317200825348025e-01  1.0944524794278740e-01  1.1569858054189373e-01  1.2193180368331052e-01  1.2814485496780059e-01  1.3433773051038453e-01  1.4051040888754390e-01  1.4666291887791516e-01  1.5279527523621780e-01  1.5890746738636799e-01  1.6499957021082973e-01  1.7107160627392304e-01  1.7712361844742344e-01  1.8315565658565303e-01  1.8916776865419993e-01  1.9515997938012059e-01  1.9515973780057855e-01  1.9515914298763576e-01  1.9515820817207849e-01  1.9515707761347215e-01  1.9515594544613768e-01  1.9515501388362852e-01  1.9515441552324209e-01  1.9515417628879544e-01  -1.2934391531907005e-01  -1.6860714499032872e-01  -1.1459860158289513e-01  -1.0199617329230165e-01  -9.3065404546902014e-02  -8.3595325639258880e-02  -7.3792719974599422e-02  -6.3733067240971969e-02  -5.2833817830964719e-02  -4.3913540630669518e-02  -3.4318717802282003e-02  -2.4230494646075650e-02  -1.3830698417969585e-02  -2.9448132453931586e-03  8.2294203723416066e-03  -1.2521521980975309e-01  -9.5502845922802199e-02  -1.1863741576784828e-01  -1.0208707993007278e-01  -7.7041736734417360e-02  -4.8583065065383998e-02  -2.3770532395208186e-02  2.0689449855622950e-02  -1.4481969741085454e-01  -1.5913381910524606e-03  3.3747369617867409e-02  1.8618570956000398e-02  4.7573132224852079e-02  3.4202103418079506e-02  -8.5377909742474223e-02  4.1952291192452758e-02  6.2887103951155002e-02  -6.1729976405231306e-02  4.3922087700098568e-02  -1.3469463508956592e-01  -9.3345457938090640e-02  7.7925406596630650e-02  4.4750999969741544e-02  -3.0860398744591202e-02  4.4609877541175340e-02  9.5192722397358043e-02  -1.2691390709839146e-02  4.1638029399382388e-02  7.1467959443528720e-03  1.1295166706889466e-01  -8.4344758753601839e-02  3.7528548871847270e-02  1.7539895901676573e-02  -7.0518654330000194e-02  3.4401354589346747e-02  -5.3325575533946831e-02  2.7688104452076999e-02  1.3292330243025771e-01  1.4776835810372629e-01  3.1230062433472146e-02  -7.4510355408701948e-02  -4.6720623027738779e-02  3.0297850354904822e-02  -1.7676739867940937e-03  2.5795226124357615e-02  -3.5267607113505003e-02  -1.0699175162288764e-01  3.4424657823871489e-02  -9.2890415388274857e-03  3.6436474792480716e-02  2.1064325185499708e-02  1.6397915897372559e-01  9.9309742042802650e-03  3.5575038960515726e-02  1.6617375078619760e-02  3.0091261818676149e-02  1.1593107960712933e-02  3.2448199137702013e-02  5.5273752472044052e-02  2.8228662723297122e-02  8.7276895537604537e-02  2.4580427003620425e-02  1.0690550430534113e-01  1.2503844409879467e-01  1.9398093557101682e-02  1.3187992215098015e-02  1.5642406182729110e-01  1.7172381440701938e-03  1.9017109018993233e-01  -1.3923826810808201e-01  7.2686545844262715e-03  1.7409763102063505e-01  -1.5219377744244908e-01  -1.3754647429778621e-01  -9.3207215090936033e-02  -2.2072565815917655e-02  4.2626553816257413e-02  -1.2448843128810876e-01  6.7965507967593375e-02  1.7482831167935708e-01  1.2278466847539214e-01  -2.1135365159829729e-02  1.0463763540053672e-01  1.3767537245798350e-01  2.3411488197248521e-02  3.2819467116371431e-02  7.5525493032922008e-03  8.6781051895619327e-02  3.6632965213376327e-02  3.0304076309501920e-02  3.2632298429616277e-02  7.0170909223339267e-02  3.5880268284467262e-02  3.9509419347053071e-02  4.3469589932854692e-02  4.4960721682777822e-02  4.4331671022515215e-02  5.4893561643946841e-02  4.3312290348380043e-02  3.9079336864300998e-02  2.7080991126898518e-02  8.8189332105148635e-03  4.0616007106629756e-02  -1.2386388025201180e-02  -3.5883047845916699e-02  -6.2846047924950743e-02  -9.0400027383126857e-02  1.7172230701362669e-03  -1.1116722845072884e-01  2.7142715521627999e-02  1.4429184921619854e-02  1.8975121109717991e-01  2.1410776879449960e-03  -8.9764879583988533e-03  -1.9892236183251810e-02  -2.9776584817161802e-02  -3.9230416582076190e-02  -4.8449836288644854e-02  -5.9433497266290401e-02  -6.9792156924287863e-02  -7.9729152194739084e-02  -8.9464301428537854e-02  -9.8521093564020543e-02  -1.0453445999303415e-01  1.8056859791891738e-03  1.9028064946306786e-01  -1.3852318573888131e-01  1.9088900563344305e-01  1.8038798050116140e-03  3.2979676446890280e-03  1.8608582711760552e-01  -1.3825355310453730e-01  -1.3792995808851782e-01  -1.3703416185319128e-01  -1.3775564179043784e-01  -1.3683696831147715e-01  -1.3787142938584607e-01  -1.3677834314385834e-01  -1.3794493798839644e-01  -1.3660012912693437e-01  -1.3769252729741732e-01  -1.3602888330568078e-01  -1.3677601902657971e-01  -1.3486130674621830e-01  -1.3521617310161146e-01  -1.3310306034504352e-01  -1.3314312378689966e-01  -1.3095432961486750e-01  -1.3087384606330479e-01  -1.2866241314729576e-01  -1.3331336978695776e-01  -1.3066372716936947e-01  -1.3334137253872935e-01  -1.2974676461009138e-01  -1.3218427459364579e-01  -1.2896999705563594e-01  -1.2665241748042411e-01  -1.2755539939721899e-01  -1.2949181721422195e-01  -1.2713787962482964e-01  -1.2487228431152018e-01  -1.2394235097957558e-01  -1.2211991725298327e-01  -1.2325952590140446e-01  -1.2041352669608182e-01  -1.2156698169111123e-01  -1.1848729653211502e-01  -1.1969173833708523e-01  -1.1630245982610425e-01  -1.1733622057021487e-01  -1.1347621466615028e-01  -1.1432507931824215e-01  -1.0982918330690142e-01  -1.1045038811965631e-01  -1.0542132255282068e-01  -1.0554843351545903e-01  -1.0017417466464086e-01  -9.9736400857547036e-02  -9.4106149745007903e-02  -9.3010629526109459e-02  -8.7374558472304978e-02  -8.5584679606501013e-02  -8.0144129915441703e-02  -7.7725283898191333e-02  -7.2767902456725819e-02  -6.9668273873521064e-02  -6.5471682205475293e-02  -6.1712112896771990e-02  -5.8153387966248846e-02  -5.4023196623914707e-02  -5.0991699373915157e-02  -4.6715727129161999e-02  -4.4398707092349790e-02  -3.9911776818832220e-02  -3.8242647589184491e-02  -1.2037828010964854e-01  -3.3669535477292359e-02  -3.2487268300966085e-02  -2.7869249905430531e-02  -2.6851325593672086e-02  -1.3870853657542745e-01  -2.2378506420137844e-02  -2.1540937337970651e-02  -1.7135669869546750e-02  -1.6691190372827489e-02  -1.2110640796143443e-02  -1.2021314838858847e-02  -7.1532662185862534e-03  -7.3924146964338185e-03  -2.2593823496588538e-03  -2.9830415645315080e-03  2.5246103888952368e-03  -1.2394868648041631e-01  -1.2530546412552701e-01  -1.3088891892500243e-01  -1.2571955675313959e-01  1.0179720516118168e-03  7.1003850717658067e-03  5.3757712632102935e-03  1.1410219039238024e-02  9.0529678536318027e-03  1.5394648243359680e-02  -1.1397024459719073e-01  -1.3113337266671285e-01  -1.2496334590790899e-01  -1.1971665497285344e-01  -1.1848349244946685e-01  -1.2279553277219275e-01  -1.1609731999937858e-01  -1.1933108143722448e-01  -1.1286103088846901e-01  -1.1480612450060722e-01  -1.0906194297060465e-01  -1.0965874755943752e-01  -1.0496691916634922e-01  -1.0535866845317401e-01  -1.0091862535625987e-01  -9.9885024079582996e-02  -9.6328768417708655e-02  -9.7197849742998110e-02  -9.2701881778167142e-02  -9.2875407139321783e-02  -8.9007145789356396e-02  -8.8847554772813073e-02  -8.5382305418308643e-02  -8.4905244005458555e-02  -8.1846588254178898e-02  -8.1466714638341528e-02  -7.8223666583721707e-02  -7.8299895274673806e-02  -7.4848907179806301e-02  -7.4706437078754365e-02  -7.1243285083757046e-02  -7.1342854350184545e-02  -6.7757910375084052e-02  -6.7550714529929765e-02  -6.4299125915544209e-02  -6.3968534227738877e-02  -6.0790312611122034e-02  -6.0390244232111569e-02  -5.7267414598620336e-02  -9.1466789364097800e-02  -5.6799043439879751e-02  -5.3668489327315085e-02  -5.4102539558605257e-02  -5.0549236041588813e-02  -5.0029730324351825e-02  -4.6940192617483965e-02  -1.1342838384236964e-01  1.2146391728305487e-02  1.8896330819511715e-02  -4.6483325447183504e-02  -4.3391622609773035e-02  -5.0753026469377197e-02  -6.4480021378446856e-02  1.5121346471425995e-02  2.1979437783856109e-02  1.8043882155823695e-02  2.4647990984829875e-02  2.0439393932395376e-02  2.6874154514894721e-02  -4.3038123418679422e-02  -3.9847016490730358e-02  -4.0591613996514876e-02  -3.6662800285394551e-02  -3.6004070794192870e-02  -3.2793126404101834e-02  -3.3377491959660201e-02  -2.9587515311693117e-02  -2.8996864542170743e-02  -2.5820475494403052e-02  2.2767021989266899e-02  2.8752627563225167e-02  2.4697033281289110e-02  3.0322782863688579e-02  -9.9668764944433524e-02  -2.5258933420280981e-02  -2.1981744441438945e-02  2.6584435380075086e-02  3.1665646826237411e-02  -2.2543665156547252e-02  -1.8694768254996743e-02  -1.8139194081667129e-02  -1.4860118854584183e-02  2.8423815251485622e-02  3.2885072738557522e-02  3.0027188356406387e-02  3.4008635409642392e-02  -7.4686201479838038e-02  -1.2588927943496683e-01  -9.2755460025729292e-02  -1.0925892957190712e-01  3.1478714813812363e-02  3.4901006434311807e-02  3.2702205568329368e-02  3.5727264757090892e-02  3.3732701554767486e-02  3.6452591130566522e-02  -1.4385853588366223e-02  -1.1008347397440037e-02  -1.1487002930645964e-02  -7.5893734318363930e-03  -7.0090483089235668e-03  -3.5494681576991130e-03  -4.1047679159153527e-03  -8.8636091807028786e-05  4.2612753179486476e-04  3.8881975556492340e-03  -6.3679248128658161e-02  -8.4215915385066578e-02  3.4484652567732567e-02  3.7044251804388591e-02  3.5103368145873524e-02  3.7511526980360234e-02  -5.5257834210344102e-02  -1.3428486998291603e-01  4.2563199418203333e-03  7.8133648692530963e-03  7.5035644065101405e-03  1.1494610412463474e-02  1.1840446351401792e-02  1.5531837073915354e-02  1.5294114183586890e-02  1.9465233314021037e-02  1.9570119341665464e-02  2.3419697488744371e-02  -1.3586312020955710e-01  3.5494619353148488e-02  3.7847408611155514e-02  3.5851680421104072e-02  3.8121040891236489e-02  -3.1407351614421868e-02  -1.2209967006804509e-01  -1.3917093362139685e-01  -4.9441227862315501e-02  -1.2222808058252570e-01  -1.1786646440696955e-01  -1.1647326014967808e-01  3.6021934282716231e-02  3.8242874244947066e-02  3.6270189839453293e-02  3.8272980282453968e-02  3.6511636369918984e-02  3.8242187671829658e-02  -1.1162399422995276e-01  -1.1067580741069097e-01  2.3242231902908538e-02  2.7359323576353026e-02  2.7464039780404518e-02  3.1457885456565325e-02  3.1347069013583959e-02  3.5506995179126338e-02  3.5684695709139881e-02  3.9677259226279113e-02  3.6782879271304018e-02  3.8136625815913233e-02  -1.0944425507208884e-01  -2.8464452121203344e-02  -2.4785504129214903e-02  3.7064641676070584e-02  3.7983872383569893e-02  3.7102393102932403e-02  3.7702061848278720e-02  -5.7757178571183204e-02  3.9866947975468921e-02  4.3880125594232863e-02  4.4077081383086199e-02  4.8099995507993300e-02  -1.6716897270180109e-02  -9.0468719443809825e-02  4.8003452489890866e-02  5.2226809078575721e-02  5.2316535145387796e-02  5.6527158314526094e-02  5.6589203833915622e-02  6.0824520747830381e-02  6.0706194997751060e-02  6.5184526037879956e-02  3.0481145698759062e-03  6.4931626024318720e-02  6.9505944513769360e-02  -2.1255832670190392e-03  3.7230992551150081e-02  3.7380228327941009e-02  3.7055534713560351e-02  3.6913099068025951e-02  3.2292475584694301e-02  -2.9324123120271262e-02  2.7898779782165688e-02  -1.7500934828788076e-02  4.0275918476462794e-02  2.1284046164011038e-02  8.2688525050422410e-04  1.1006635245975935e-02  6.9614804494521565e-02  7.3953248393431606e-02  7.3927616214020803e-02  7.8419352240127291e-02  4.0235415749842386e-02  1.2775087626126979e-02  3.6856195637415864e-02  -7.4614322634402569e-02  3.9519794594340157e-02  3.9661456198784674e-02  -4.3324374052839953e-02  3.6706737801388889e-02  3.6331260001549001e-02  3.6105556434000576e-02  3.5617869566913755e-02  3.5305625476685205e-02  3.4784998744197014e-02  -1.1744843141756067e-01  3.8500603480095694e-02  3.5335580916377084e-02  3.8578996828756283e-02  -4.9008997741967458e-04  -1.9148681569848523e-02  -8.1075765128085037e-02  -8.3571114485213205e-02  -8.0472384683578257e-02  3.7306667879436935e-02  3.5936460732505122e-02  -1.0614728068665621e-01  -1.0527126074760666e-01  7.8207327623204412e-02  8.2657776022120502e-02  8.3000877162238959e-02  8.7321174731924717e-02  8.7699709322655681e-02  9.20729959781