<?xml version="1.0"?>
<VTKFile type="UnstructuredGrid"  version="0.1"  >
<UnstructuredGrid>
<Piece  NumberOfPoints="2945" NumberOfCells="5525">
<Points>
<DataArray  type="Float64"  NumberOfComponents="3"  format="ascii">0 0.1 0  0.95 0.1 0  1 0.1 0  1 0 0  1.5 0 0  3 0 0  3 0.3 0  0 0.3 0  0.0197424558707114 0.1 0  0.03915669042224804 0.1 0  0.05824816022699029 0.1 0  0.07702223050332387 0.1 0  0.09548417327144595 0.1 0  0.1136391897583987 0.1 0  0.1314923700144587 0.1 0  0.1490487330862866 0.1 0  0.1663132263225292 0.1 0  0.1832906857273058 0.1 0  0.1999858946008978 0.1 0  0.216403545770297 0.1 0  0.2325482404045023 0.1 0  0.2484245348165176 0.1 0  0.2640368740372501 0.1 0  0.2793896589642241 0.1 0  0.2944872056237027 0.1 0  0.3093337469555254 0.1 0  0.3239334613687816 0.1 0  0.3382904528528069 0.1 0  0.3524087553122972 0.1 0  0.3662923366391824 0.1 0  0.3799451014768399 0.1 0  0.393370886920506 0.1 0  0.4065734648871676 0.1 0  0.419556546320114 0.1 0  0.4323237821343415 0.1 0  0.4448787573056132 0.1 0  0.4572250047274954 0.1 0  0.4693659926332938 0.1 0  0.4813051343276231 0.1 0  0.4930457849308193 0.1 0  0.5045912455271677 0.1 0  0.5159447600209797 0.1 0  0.5271095174127136 0.1 0  0.5380886618453393 0.1 0  0.5488852725463512 0.1 0  0.5595023868312478 0.1 0  0.5699429904313016 0.1 0  0.5802100167387366 0.1 0  0.5903063508274641 0.1 0  0.6002348329443006 0.1 0  0.6099982499579832 0.1 0  0.6195993483501782 0.1 0  0.6290408246013842 0.1 0  0.6383253354321616 0.1 0  0.6474554910757137 0.1 0  0.6564338522440513 0.1 0  0.6652629482939147 0.1 0  0.6739452579188948 0.1 0  0.6824832240165607 0.1 0  0.6908792415022103 0.1 0  0.6991356755989045 0.1 0  0.7072548438546967 0.1 0  0.7152390281534421 0.1 0  0.7230904746196039 0.1 0  0.7308113906759266 0.1 0  0.7384039435269326 0.1 0  0.7458702676581656 0.1 0  0.7532124631720397 0.1 0  0.7604325921167397 0.1 0  0.7675326856666862 0.1 0  0.7745147374421916 0.1 0  0.7813807123989068 0.1 0  0.7881325374362798 0.1 0  0.7947721131625659 0.1 0  0.8013013031866276 0.1 0  0.8077219449067021 0.1 0  0.8140358419942376 0.1 0  0.8202447685401882 0.1 0  0.8263504700910924 0.1 0  0.8323546643163114 0.1 0  0.8382590362474568 0.1 0  0.8440652473522128 0.1 0  0.8497749272799842 0.1 0  0.8553896837646281 0.1 0  0.8609110933285474 0.1 0  0.866340708855119 0.1 0  0.8716800550492284 0.1 0  0.8769306339052932 0.1 0  0.8820939206038667 0.1 0  0.8871713655604893 0.1 0  0.8921643975475726 0.1 0  0.8970744196575535 0.1 0  0.9019028106970642 0.1 0  0.9066509291259979 0.1 0  0.9113201098984042 0.1 0  0.9159116634553873 0.1 0  0.9204268818729691 0.1 0  0.9248670319440222 0.1 0  0.9292333656649013 0.1 0  0.9335271075812669 0.1 0  0.9377494640511216 0.1 0  0.941901623463222 0.1 0  0.9459847526686701 0.1 0  0.9538461538461205 0.1 0  0.9576923076922409 0.1 0  0.9615384615384381 0.1 0  0.9653846153846337 0.1 0  0.9692307692307542 0.1 0  0.9730769230768747 0.1 0  0.9769230769229952 0.1 0  0.9807692307691157 0.1 0  0.9846153846152361 0.1 0  0.9884615384614317 0.1 0  0.9923076923076356 0.1 0  0.9961538461538395 0.1 0  1 0.09591793123533533 0  1 0.09133596463859224 0  1 0.08619288104391448 0  1 0.08041996484521211 0  1 0.07394008421771697 0  1 0.06666666567302955 0  1 0.05850252932209174 0  1 0.04933859630113544 0  1 0.03905242821848202 0  1 0.02750659386753798 0  1 0.01454683679239736 0  1.015625 0 0  1.03125 0 0  1.046875 0 0  1.0625 0 0  1.078125 0 0  1.09375 0 0  1.109375 0 0  1.125 0 0  1.140625 0 0  1.15625 0 0  1.171875 0 0  1.1875 0 0  1.203125 0 0  1.21875 0 0  1.234375 0 0  1.25 0 0  1.265625 0 0  1.28125 0 0  1.296875 0 0  1.3125 0 0  1.328125 0 0  1.34375 0 0  1.359375 0 0  1.375 0 0  1.390625 0 0  1.40625 0 0  1.421875 0 0  1.4375 0 0  1.453125 0 0  1.46875 0 0  1.484375 0 0  1.515920751924515 0 0  1.531989369316721 0 0  1.54820720925872 0 0  1.564575665560501 0 0  1.581096138674279 0 0  1.597770029901263 0 0  1.614598783332311 0 0  1.631583831055205 0 0  1.64872661129721 0 0  1.666028606716533 0 0  1.683491276608443 0 0  1.701116134125304 0 0  1.718904673324128 0 0  1.736858414799339 0 0  1.754978895814663 0 0  1.773267661782904 0 0  1.791726281103402 0 0  1.810356325314689 0 0  1.8291593848892 0 0  1.848137076690385 0 0  1.867291007717254 0 0  1.886622833871288 0 0  1.90613418642363 0 0  1.925826753299799 0 0  1.945702199101513 0 0  1.96576223584749 0 0  1.986008569283268 0 0  2.006442931928877 0 0  2.02706707547783 0 0  2.047882750887917 0 0  2.06889175187935 0 0  2.090095860038271 0 0  2.111496891648636 0 0  2.133096679109554 0 0  2.154897066851056 0 0  2.176899916687499 0 0  2.199107102752146 0 0  2.22152053937028 0 0  2.244142122958061 0 0  2.266973806444078 0 0  2.290017523268154 0 0  2.313275249499252 0 0  2.336748971745516 0 0  2.360440702338606 0 0  2.384352453384031 0 0  2.408486280477412 0 0  2.432844240041185 0 0  2.457428414757088 0 0  2.482240901796653 0 0  2.507283830121838 0 0  2.532559332080812 0 0  2.558069568787417 0 0  2.583816724966441 0 0  2.60980299606584 0 0  2.636030600971886 0 0  2.662501790984011 0 0  2.689218818279327 0 0  2.716183964547616 0 0  2.743399548861297 0 0  2.77086788244719 0 0  2.798591312896326 0 0  2.826572223178268 0 0  2.854812990138617 0 0  2.883316031690714 0 0  2.912083780657189 0 0  2.941118704633482 0 0  2.970423276998917 0 0  3 0.02999999999994495 0  3 0.05999999999987042 0  3 0.089999999999783 0  3 0.119999999999701 0  3 0.149999999999619 0  3 0.179999999999692 0  3 0.2099999999997737 0  3 0.2399999999998511 0  3 0.2699999999999185 0  2.970138294777171 0.3 0  2.940375666438236 0.3 0  2.910711782853056 0.3 0  2.881146331305122 0.3 0  2.851678975030285 0.3 0  2.822309388626621 0.3 0  2.793037250095074 0.3 0  2.76386223529133 0.3 0  2.734784017903872 0.3 0  2.705802289276642 0.3 0  2.676916713794697 0.3 0  2.648126987654635 0.3 0  2.619432780406184 0.3 0  2.590833779385199 0.3 0  2.562329669847737 0.3 0  2.533920134950189 0.3 0  2.505604855727852 0.3 0  2.477383539822502 0.3 0  2.449255847639465 0.3 0  2.421221492569094 0.3 0  2.393280152486815 0.3 0  2.36543151914496 0.3 0  2.337675285481809 0.3 0  2.310011142385583 0.3 0  2.282438797441587 0.3 0  2.254957931061538 0.3 0  2.227568248063605 0.3 0  2.200269436651085 0.3 0  2.173061204949961 0.3 0  2.145943251515011 0.3 0  2.118915272469994 0.3 0  2.091976978084957 0.3 0  2.065128060700849 0.3 0  2.038368218849433 0.3 0  2.01169717777258 0.3 0  1.985114624111908 0.3 0  1.958620267850966 0.3 0  1.93221382054972 0.3 0  1.905894991850698 0.3 0  1.879663489459713 0.3 0  1.853519019126419 0.3 0  1.827461291053897 0.3 0  1.801490031354372 0.3 0  1.775604937580312 0.3 0  1.74980572560258 0.3 0  1.724092118631866 0.3 0  1.698463829173586 0.3 0  1.672920575782554 0.3 0  1.647462076974085 0.3 0  1.622088043536933 0.3 0  1.5967981978949 0.3 0  1.571592267767068 0.3 0  1.546469970305736 0.3 0  1.521431023814044 0.3 0  1.496475156230927 0.3 0  1.471602093687753 0.3 0  1.446811560490646 0.3 0  1.422103279101731 0.3 0  1.397476971708191 0.3 0  1.37293238939876 0.3 0  1.348469231419202 0.3 0  1.324087248732772 0.3 0  1.299786165921677 0.3 0  1.275565710847046 0.3 0  1.251425617644257 0.3 0  1.227365618676339 0.3 0  1.203385446174014 0.3 0  1.179484853067473 0.3 0  1.155663548773374 0.3 0  1.131921292279077 0.3 0  1.108257802159295 0.3 0  1.084672829009693 0.3 0  1.061166115303374 0.3 0  1.037737392995421 0.3 0  1.01438640299116 0.3 0  0.991112899770314 0.3 0  0.9679166155523955 0.3 0  0.944797284182564 0.3 0  0.921754678526042 0.3 0  0.8987885143602501 0.3 0  0.8758985548820624 0.3 0  0.8530845484099929 0.3 0  0.8303462351786988 0.3 0  0.8076833651172373 0.3 0  0.7850956864865304 0.3 0  0.7625829601354557 0.3 0  0.7401449314598274 0.3 0  0.717781337993959 0.3 0  0.6954919649675473 0.3 0  0.6732765357561226 0.3 0  0.6511348120768439 0.3 0  0.6290665642016573 0.3 0  0.6070715355430467 0.3 0  0.5851494825775325 0.3 0  0.5633001690203812 0.3 0  0.5415233562273221 0.3 0  0.5198187909431873 0.3 0  0.4981862401387795 0.3 0  0.4766254686134248 0.3 0  0.4551362360485234 0.3 0  0.4337182975262159 0.3 0  0.4123714223228037 0.3 0  0.3910953802377493 0.3 0  0.3698899313205595 0.3 0  0.3487548463710963 0.3 0  0.3276898864081783 0.3 0  0.3066948129116018 0.3 0  0.2857694003037476 0.3 0  0.2649134227095047 0.3 0  0.2441266417321288 0.3 0  0.2234088223399122 0.3 0  0.2027597568977288 0.3 0  0.1821792020676698 0.3 0  0.1616669305402443 0.3 0  0.1412227158799362 0.3 0  0.12084633013886 0.3 0  0.1005375673448281 0.3 0  0.08029618164595353 0.3 0  0.06012194778526769 0.3 0  0.04001466495039718 0.3 0  0.01997408913631205 0.3 0  0 0.2800000000000553 0  0 0.2600000000001105 0  0 0.2400000000001658 0  0 0.2200000000002211 0  0 0.2000000000002764 0  0 0.1800000000002244 0  0 0.1600000000001691 0  0 0.140000000000115 0  0 0.1200000000000564 0  1.133778471000506 0.01219539743990768 0  1.003741919047894 0.09354664821474232 0  0.9559421147150347 0.1035858189992458 0  0.9313792160389045 0.1037365237938103 0  0.9788461538460573 0.1033060829993555 0  0.9090102438250753 0.1037269304984056 0  0.8846304212778655 0.1043349840723655 0  0.8581503885465881 0.104741932962923 0  0.8286416220145676 0.1052762843984476 0  0.7982741772533339 0.1053575624517407 0  0.7708789559342691 0.1060290465840416 0  0.741870349714261 0.1078220590984258 0  0.7112469360040695 0.10685702926368 0  0.6783901541417233 0.1079959711853378 0  0.642884733623195 0.1075561996086514 0  0.6056235042367955 0.1085956039602543 0  0.5647007593786924 0.1083187281660325 0  1.1953125 0.01353164693413185 0  1.258148737344733 0.01268350115427042 0  1.320087046516829 0.01426312402966312 0  1.383495130751951 0.01432665475473204 0  1.4453125 0.01315663539200989 0  1.50886768312388 0.01395488397722681 0  0.9942307692307371 0.103330866937657 0  1.119309781943483 0.2802014914557878 0  1.572831235329714 0.01707210522554785 0  1.637611634353954 0.01209340368483431 0  1.709661292005932 0.0146870244871893 0  1.006561890631532 0.07068055446055937 0  1.784793444007901 0.01499371444634687 0  1.855459587353174 0.0
[...]
<PointData  Scalars="pressure"> 
<DataArray  type="Float64"  Name="pressure"  format="ascii">2.3314396907351905e-04  -3.5759494675594966e-01  -2.1843377034825859e-01  -1.8033165881889507e-01  -7.4187161428521274e-03  0.0000000000000000e+00  0.0000000000000000e+00  2.5477946965977413e-04  -5.6895721218434107e-03  -1.1514057595928651e-02  -1.7242015711874562e-02  -2.2875087806549285e-02  -2.8414931489754242e-02  -3.3863095018265392e-02  -3.9221173587685509e-02  -4.4490751225826915e-02  -4.9673275061902160e-02  -5.4770396705437617e-02  -5.9783590924609900e-02  -6.4714272763388300e-02  -6.9564014730589832e-02  -7.4334225057467160e-02  -7.9026439915059726e-02  -8.3642050260509970e-02  -8.8182613080316705e-02  -9.2649454442836704e-02  -9.7044147903184982e-02  -1.0136799901941024e-01  -1.0562270292448882e-01  -1.0980953742620519e-01  -1.1392961437947437e-01  -1.1798507704898427e-01  -1.2197699544215120e-01  -1.2590704267607378e-01  -1.2977644596665194e-01  -1.3358689486629341e-01  -1.3733999154740270e-01  -1.4103706734508939e-01  -1.4467989037766532e-01  -1.4826934041687265e-01  -1.5180814502176851e-01  -1.5529727230399595e-01  -1.5873831813124181e-01  -1.6213295423332888e-01  -1.6548312009741159e-01  -1.6879021890189450e-01  -1.7205615166015872e-01  -1.7528255785305386e-01  -1.7847151987894272e-01  -1.8162460728298510e-01  -1.8474374453968073e-01  -1.8783062038360959e-01  -1.9088741637910586e-01  -1.9391577923607031e-01  -1.9691813694659083e-01  -1.9989601503964138e-01  -2.0285164711891077e-01  -2.0578728689738127e-01  -2.0870506767480423e-01  -2.1160612116082395e-01  -2.1449516860721143e-01  -2.1737056779838157e-01  -2.2023727355895495e-01  -2.2309710005499234e-01  -2.2595153919573227e-01  -2.2880530867081822e-01  -2.3165894361727318e-01  -2.3451199562019076e-01  -2.3737124804672119e-01  -2.4023860243997444e-01  -2.4311716180621562e-01  -2.4600749701842609e-01  -2.4890964256267956e-01  -2.5183345083839542e-01  -2.5477752016664335e-01  -2.5774593840912113e-01  -2.6074178468396186e-01  -2.6376796776643824e-01  -2.6682752033838592e-01  -2.6992551720910318e-01  -2.7306389474682685e-01  -2.7624610425854423e-01  -2.7947946920371441e-01  -2.8276809988594398e-01  -2.8611431391609771e-01  -2.8952609214008035e-01  -2.9301062445827963e-01  -2.9657158593715333e-01  -3.0021510411314090e-01  -3.0396082656586682e-01  -3.0780784579082304e-01  -3.1177170647066038e-01  -3.1586142439400927e-01  -3.2011050401914987e-01  -3.2451215928478022e-01  -3.2902926166505658e-01  -3.3463922344233071e-01  -3.3496506230986312e-01  -3.6358047784329917e-01  -3.2502252612063476e-01  -3.6061152994865187e-01  -3.6081094361429644e-01  -3.7239779127803163e-01  -3.8702393029815890e-01  -4.1843877866106904e-01  -4.2535009917782607e-01  -4.2098267945583978e-01  -4.0629054541624698e-01  -3.8490108873940998e-01  -3.5894563337963326e-01  -3.3082307156904378e-01  -3.0194049328798028e-01  -2.7372353669368982e-01  -2.4876122633910402e-01  -2.1696153111308442e-01  -2.2132699441234888e-01  -1.9973477917971669e-01  -1.9272959417443475e-01  -1.8765900934666924e-01  -1.8449195011991970e-01  -1.8232895213292252e-01  -1.8083679321622106e-01  -1.7993256093665691e-01  -1.7955671428000947e-01  -1.7966089234630014e-01  -1.8011710420010907e-01  -1.8059104803735096e-01  -1.8107376556645496e-01  -1.8137103271824773e-01  -1.8166091378460175e-01  -1.8214656871623516e-01  -1.8295756880482922e-01  -1.8414392794823084e-01  -1.8577697606898114e-01  -1.8778592074573341e-01  -1.9000920503922059e-01  -1.9225603461108706e-01  -1.9423201554309388e-01  -1.9554876131623125e-01  -1.9577358545185344e-01  -1.9447213756956166e-01  -1.9131313017119908e-01  -1.8596394820725298e-01  -1.7824332312026869e-01  -1.6818620037892826e-01  -1.5584817098665896e-01  -1.4167654155315146e-01  -1.2626194589998166e-01  -1.0997260091047330e-01  -9.3584593108832367e-02  -7.7463063294169687e-02  -6.2542384980425067e-02  -4.8790725573387844e-02  -3.6775412297041926e-02  -2.6585651400621919e-02  -1.8317761093750141e-02  -1.1962889521293374e-02  -4.5340585744926658e-03  -3.2285578112819322e-03  -3.3490718248194713e-03  -4.7407804130239414e-03  -7.2204595951359443e-03  -1.0489972389949245e-02  -1.4435729557852559e-02  -1.8640406734277130e-02  -2.2993221714248675e-02  -2.7089943115172984e-02  -3.0575885191943812e-02  -3.3116481200004586e-02  -3.4419412991293870e-02  -3.4237848191899380e-02  -3.2456603160644124e-02  -2.9063633540442592e-02  -2.4209682947494045e-02  -1.8159137423933939e-02  -1.1210291001930722e-02  -4.0275331628753493e-03  3.1456986255773483e-03  9.7753178546247464e-03  1.5469549903613459e-02  2.0029382089976979e-02  2.3240717256643048e-02  2.5165599755010849e-02  2.5764061598919932e-02  2.5173954056534196e-02  2.3567342771075240e-02  2.1088941276349749e-02  1.7863487274843097e-02  1.4062832893470266e-02  9.8115661409012723e-03  5.2297650601133500e-03  4.3914148322410335e-04  -4.2901531488608088e-03  -8.6381436242320957e-03  -1.2159335023132611e-02  -1.4396696515919922e-02  -1.4931763220894264e-02  -1.3497615963266546e-02  -1.0059131940379190e-02  -4.8510704819236753e-03  1.6184167747141493e-03  8.6695408439581914e-03  1.5523086313570758e-02  2.1507131965594208e-02  2.6054264809233181e-02  2.8814265789397508e-02  2.9617585096719863e-02  2.8599814729280432e-02  2.6025274030418492e-02  2.1979391177836999e-02  1.7052751153437174e-02  1.1315038274656826e-02  4.9632783364660206e-03  -1.3475263868890160e-03  -7.6153894129873173e-03  -1.3069181788287858e-02  -1.7263299870629679e-02  -1.9543052189083452e-02  -1.9787225701134750e-02  -1.7810323367269579e-02  -1.4345721706499002e-02  -9.7562922983022628e-03  -5.2473820026958723e-03  -1.3076764685889812e-03  0.0000000000000000e+00  0.0000000000000000e+00  0.0000000000000000e+00  0.0000000000000000e+00  0.0000000000000000e+00  0.0000000000000000e+00  0.0000000000000000e+00  0.0000000000000000e+00  0.0000000000000000e+00  4.4440287746573071e-03  9.6582454837091623e-03  1.4734534929767321e-02  1.9127514591767654e-02  2.2556428750325271e-02  2.4680568310633921e-02  2.5131630678775711e-02  2.3600327233410313e-02  1.9941401339734922e-02  1.4314499606553403e-02  7.2317440502301716e-03  -4.1781070413203226e-04  -7.5093939891924455e-03  -1.2905242695575570e-02  -1.5665494264948465e-02  -1.5305136518006104e-02  -1.1896027708395403e-02  -5.9910292241335972e-03  1.5276030887919224e-03  9.6951310450551845e-03  1.7695522686815304e-02  2.4920659966009930e-02  3.0961525152090174e-02  3.5468575029748123e-02  3.8090665494399677e-02  3.8453581092774747e-02  3.6109757524598225e-02  3.0824724817737629e-02  2.2618166169122343e-02  1.1962132408633747e-02  -2.2412547941789757e-04  -1.2628929899757514e-02  -2.3897674910276820e-02  -3.2731044490408048e-02  -3.7562304334347645e-02  -3.9270768501745386e-02  -3.7045882108578829e-02  -3.2502768569064575e-02  -2.6505748066941448e-02  -2.0023898426336801e-02  -1.4389403904919254e-02  -9.9131532957023941e-03  -7.0913222619061762e-03  -6.1272018852327748e-03  -7.1396759465805351e-03  -1.0200375860812643e-02  -1.5353816411181949e-02  -2.2612617863512343e-02  -3.1836230111748250e-02  -4.2692980944903147e-02  -5.4726581109483287e-02  -6.7193252844831672e-02  -7.9630262664480006e-02  -9.1105858622646960e-02  -1.0111392167155017e-01  -1.0938635229347966e-01  -1.1588518174543547e-01  -1.2081978830019691e-01  -1.2456060311451404e-01  -1.2758849402151209e-01  -1.3035051690659799e-01  -1.3324235443947899e-01  -1.3646086962833143e-01  -1.4027703079730119e-01  -1.4477175392902875e-01  -1.5000447645169426e-01  -1.5594661543959845e-01  -1.6255062789243377e-01  -1.6972932420156547e-01  -1.7736867493802796e-01  -1.8521530377985015e-01  -1.9326520180515250e-01  -2.0120157438441330e-01  -2.0880814280838000e-01  -2.1564012430226301e-01  -2.2180668450205726e-01  -2.2671233354148213e-01  -2.3052055217128142e-01  -2.3322870207428473e-01  -2.3423390412852538e-01  -2.3405642997140072e-01  -2.3271144550129616e-01  -2.3048008853050519e-01  -2.2739835996099264e-01  -2.2358032513430673e-01  -2.1917058366279249e-01  -2.1434889784143679e-01  -2.0916648718158282e-01  -2.0366564796995112e-01  -1.9796734412725883e-01  -1.9208219401270635e-01  -1.8607281911210075e-01  -1.7996192418466134e-01  -1.7376999973401006e-01  -1.6751886044653244e-01  -1.6123276393626462e-01  -1.5491603751986283e-01  -1.4858067091484395e-01  -1.4223537095054245e-01  -1.3588864054626634e-01  -1.2954420180346463e-01  -1.2320311753382489e-01  -1.1687171296790708e-01  -1.1055100931365421e-01  -1.0424389380183402e-01  -9.7950854848691427e-02  -9.1673337073832017e-02  -8.5413359471834163e-02  -7.9169982170312361e-02  -7.2945369450784309e-02  -6.6738884611604862e-02  -6.0551260291272668e-02  -5.4382947065887199e-02  -4.8233714454936454e-02  -4.2104000394827465e-02  -3.5993817291288602e-02  -2.9903232993652593e-02  -2.3832289721286107e-02  -1.7780997822877894e-02  -1.1749375997442241e-02  -5.7374457624048318e-03  2.5471894395091485e-04  2.5382754030273878e-04  2.5160584903004051e-04  2.4815936087620611e-04  2.4396674428611980e-04  2.3978084757617885e-04  2.3632157394790971e-04  2.3411691982496972e-04  2.3322157637688861e-04  -1.8625497616098510e-01  -2.0188176365007635e-01  -4.1075198982029376e-01  -3.4582047946390598e-01  -3.3546742517639921e-01  -3.2277663817406954e-01  -3.0239244128307852e-01  -2.8465582950041773e-01  -2.6817061024298805e-01  -2.5352498919463118e-01  -2.4170809667090029e-01  -2.3020884659607210e-01  -2.1885607470939072e-01  -2.0734760692293594e-01  -1.9544220503732487e-01  -1.8336593909833274e-01  -1.7042859372531111e-01  -1.9407974067705375e-01  -1.8854850169858520e-01  -1.5005922744788824e-01  -8.6095695856947638e-02  -3.2529348842807067e-02  -6.2212378356282525e-03  -2.2841116105621437e-01  -1.8081261264958665e-01  -5.8461283689665890e-03  -1.9970279722314570e-02  -3.3835902868315379e-02  -1.8389547258552849e-01  -2.6728620790723325e-02  -2.0005360018905687e-03  -1.5713372527518160e-01  2.1462368523180370e-02  -1.5206433831966820e-01  -1.3377348244104459e-01  2.4277890464482949e-02  -1.2223441943194112e-01  -1.4265174644818274e-01  -8.7264226881101539e-02  1.2636768009670793e-02  -1.2851008850570553e-01  -1.8202943695306534e-01  -6.0682333541117279e-03  -2.7080988018238591e-02  -2.0400465391640499e-01  -1.1233296638477830e-01  -1.4726324580401634e-02  -7.8158797834364316e-03  -9.4551430672518658e-02  -2.2155006744464995e-02  4.3524756350874320e-03  -3.8598536055568344e-02  -2.2771166863967884e-01  2.7743209833562359e-02  -7.6681060499981760e-02  -2.9240156528638185e-02  -2.3385556356953166e-01  -2.2854705545962420e-01  5.1832766666489692e-03  2.4698459384322014e-02  -5.6779763837160095e-02  -4.1973792495008488e-02  -8.4088101826953685e-03  8.7738019911699130e-03  -1.0733490916110715e-02  -2.1198472588112230e-01  3.3606692253146837e-02  3.3531800554363264e-02  -1.9478773550457826e-01  -3.6664843522568968e-01  -4.0819568371113724e-01  -1.7702572969769817e-01  1.4400803722274596e-02  -2.0318206323636345e-02  -1.5260744320450589e-01  -1.4079507654583717e-02  -1.2021059488524999e-01  -1.1428328596022041e-02  -8.8542478867946361e-02  1.0141124765521047e-02  -6.9943375945641845e-02  -3.3078987713087898e-02  -5.1162928059133167e-02  2.4675576798502536e-02  -4.7999136674216772e-03  1.4503152145077312e-03  -2.5455452418576597e-02  -1.8023642904473794e-01  2.1759095114700699e-02  -1.2682227592003666e-02  -1.8945425114048586e-01  -1.8103341620722041e-01  -2.1745483062983337e-01  -1.6555563287066180e-01  -2.2145418862577332e-01  -1.6432845307814631e-01  -1.3936462048218007e-01  -1.0665939204985683e-01  -6.1318973437418142e-02  -1.1250802222180963e-01  -1.2794809013848704e-01  -1.4156090704549126e-01  -6.7139681562663617e-02  -8.5832012269316180e-02  3.8653683611098895e-02  -1.8313849765126493e-03  -1.0303141228135575e-01  2.9610159587122119e-02  -2.0903266622671210e-02  1.8443245180720200e-02  -8.2816683968815648e-03  -1.2028953361875187e-01  -1.3266828402074658e-02  -4.8274439090493296e-03  3.4676437117612839e-03  -1.3536697917591403e-01  2.0209493942092385e-02  2.5593721015555661e-02  -3.4773662157064514e-03  1.1534553723063799e-02  -1.5018067155479045e-01  -1.5596475384678333e-02  -3.3807609194483557e-02  -2.8496563742207777e-02  -1.6393175792828685e-01  -1.2388364549282826e-02  -1.4113920717992575e-03  -1.7689021485534628e-01  -1.8942087852094827e-01  -2.0165814600655638e-01  -2.1276180559326605e-01  -2.2477308109101332e-01  -2.3603370425757331e-01  -2.4784928723407293e-01  -2.6238516878793361e-01  -1.9048133936921996e-01  -2.7804157809311170e-01  -2.9515977622452405e-01  -3.1421750177987834e-01  -1.9463820188042436e-01  -3.3707860213624402e-01  -1.1984004693501887e-01  -1.7272390179259267e-01  -5.8772904794581193e-02  -1.5786909757667486e-02  -4.4100112535709586e-03  -2.7781064503214081e-01  4.3384054997095672e-03  -1.4416726068795694e-02  1.2942357703399980e-02  -1.8056435454109171e-01  -1.3950784245544425e-03  -4.2687960922199401e-03  -1.8080789825296939e-01  -1.8055806585303996e-01  -1.8065226791326564e-01  -1.8031421973729839e-01  -1.8030992291875053e-01  -1.8002961137257983e-01  -1.7988014647698680e-01  -1.7953047188533858e-01  -1.7915831643154881e-01  -1.7855156251482962e-01  -1.7800247888095747e-01  -1.7699752335007635e-01  -1.7642605637390107e-01  -1.7525040202608422e-01  -1.7482488261771847e-01  -1.7398323949538261e-01  -1.7389681200791146e-01  -1.7377598337048503e-01  -1.7434398800388609e-01  -1.7536339688105976e-01  -1.7610859532587761e-01  -1.7544816151353740e-01  -1.7567280813148764e-01  -1.7775377379272339e-01  -1.7785704206934763e-01  -1.7895003573665905e-01  -1.7845668132957629e-01  -1.8044921680228065e-01  -1.8199497326574954e-01  -1.8384118814020034e-01  -1.8667429393902171e-01  -1.8753483833733833e-01  -1.9170798822387775e-01  -1.9096895309177250e-01  -1.9640017340041313e-01  -1.9243313347344190e-01  -1.9942106759666745e-01  -1.9398806515959674e-01  -2.0026089216188728e-01  -1.9225545510020067e-01  -1.9780184435788134e-01  -1.8553848999127384e-01  -1.9115021981198355e-01  -1.7891995089699089e-01  -1.8096966394475719e-01  -1.6802525269253615e-01  -1.6724509953524558e-01  -1.5513176454199529e-01  -1.5099477802946035e-01  -1.4073920631421641e-01  -1.3337958661349014e-01  -1.8184126049904992e-01  -1.8459755730093086e-01  -1.2601056990870121e-01  -1.1452225985843556e-01  -1.1183619372465473e-01  -9.7898493574808718e-02  -9.9193838467831655e-02  -8.3661423375929370e-02  -8.7979609921800594e-02  -7.0752212250682150e-02  -7.8548669539274737e-02  -6.0165505040146741e-02  -1.7973028499776678e-01  -7.0646775127692116e-02  -5.1667322806377744e-02  -6.4004152931354794e-02  -4.5153352146689675e-02  -5.8548619925395146e-02  -4.0290288630893699e-02  -1.8703783626362044e-01  -1.9137956643541137e-01  -1.7622195939851082e-01  -5.3541699419674946e-02  -3.6663288049435298e-02  -1.8239710152458963e-01  -4.8504949049243379e-02  -3.3951231955260966e-02  -4.4270173774211115e-02  -3.2053666314719446e-02  -4.0021469935721588e-02  -3.0651368938987900e-02  -1.8575781332618141e-01  -3.6411646570391837e-02  -2.9680434012263248e-02  -3.2262076462159846e-02  -2.8713780014038438e-02  -2.8603783354681368e-02  -2.7825270230917774e-02  -1.7626075259479804e-01  -1.8568347660111353e-01  -2.5118514292567590e-02  -2.6573041841749818e-02  -1.9297669182027755e-01  -1.9913746354732792e-01  -1.8853391621391252e-01  -1.6532435682885332e-01  -2.1448857834841701e-02  -2.5022138517146523e-02  -1.8029937334816788e-02  -2.2966725937182540e-02  -1.4937702461726508e-02  -2.0526123499439757e-02  -2.4478167516446537e-02  -3.0267145988620851e-02  -2.2799264145430379e-02  -4.2372889783843071e-02  -1.2425107844660860e-02  -1.7869965110195656e-02  -2.6243817651203902e-02  -2.3060298093210228e-02  -1.5525817707365115e-02  -1.9562489893808731e-02  -1.3730295118236483e-02  -1.6131462882653668e-02  -1.2756553687414112e-02  -1.3221619088055542e-02  -1.2903963038569099e-02  -1.1437122648976610e-02  -1.4249430114143695e-02  -1.0743476600741190e-02  -1.6823734474959755e-02  -1.1240369877601382e-02  -1.9913049376922756e-02  -1.1995991568075518e-02  -2.3228544006960696e-02  -1.3378233667509135e-02  -2.5781315399605174e-02  -1.4476486783677384e-02  -2.7719002600215547e-02  -1.4831149055975571e-02  -8.3406702988458495e-02  -1.3262737463240873e-01  -2.7398393025703509e-02  -1.4058005194764654e-02  -2.4655864738443424e-02  -1.1912256933387100e-02  -1.9009355505710188e-01  -1.9999021323773528e-02  -8.6945088603681241e-03  -1.7905713748404167e-01  -2.0412093554767655e-01  -1.9918866273824479e-01  -2.0669403935546798e-01  -2.0859547122206712e-01  -2.1566739881354310e-01  -2.1980042310347414e-01  -2.2663118317981254e-01  -2.3284976863796211e-01  -2.3860645650656523e-01  -2.4784485247898289e-01  -2.5061100767008837e-01  -2.6289563261478788e-01  -2.6174189662949549e-01  -2.7670739950919643e-01  -2.7201799852629915e-01  -2.9029906209791118e-01  -2.8139606029795716e-01  -2.9557424566939239e-01  -2.8486319560436035e-01  -2.9872936385922161e-01  -2.8930384952851257e-01  -2.9962134328794066e-01  -2.8981899516358939e-01  -2.9820731276469914e-01  -2.8863314618323044e-01  -2.9529128941285249e-01  -2.8629381525857506e-01  -2.9150915035169356e-01  -2.8314288885868788e-01  -2.8016899894742231e-01  -2.7755737820024390e-01  -2.7494236472626021e-01  -2.7945359603503200e-01  -2.7190131643981491e-01  -2.7541940039444085e-01  -2.6849074977383691e-01  -2.7133553609972366e-01  -2.6487952814865118e-01  -2.6485289028996289e-01  -2.6796784319719491e-01  -2.6116489727968761e-01  -2.6269417162543635e-01  -2.5706168125436785e-01  -2.5510450428044673e-01  -2.5148472248162673e-01  -2.5295029328236945e-01  -2.4778371403784377e-01  -2.4864983441366015e-01  -2.4394769117630741e-01  -2.2355298515497879e-01  -2.4438447956962053e-01  -2.4002722688810366e-01  -2.3908948474140318e-01  -2.3546111083983692e-01  -2.3612884615201429e-01  -2.3176221806535496e-01  -2.3219847807573232e-01  -2.2801264757460288e-01  -2.9383012822221138e-01  -2.6865167518696303e-01  -2.5948811355105461e-01  -3.0881971223440968e-01  -2.2826566711726373e-01  -2.2419559192145433e-01  -2.2384417933309159e-01  -2.2012214884237472e-01  -2.2031118345045292e-01  -2.1635942003539294e-01  -2.1635470912068119e-01  -2.1251532479469606e-01  -2.1245571598129934e-01  -2.0872000713192151e-01  -2.0856841696067929e-01  -2.0488711261871012e-01  -2.4939386425878021e-01  -2.0457313158073204e-01  -2.0103311573162025e-01  -3.0846749433177972e-01  -2.3954872801455937e-01  -2.3442346176672713e-01  -3.0001345201761737e-01  -2.0062055232370948e-01  -1.9704457584837165e-01  -1.9768827368306249e-01  -1.9349845663801224e-01  -1.9311412060111849e-01  -1.8945024366442442e-01  -1.8983319053402772e-01  -1.8581663449610536e-01  -1.8538230620861754e-01  -1.8178480726536628e-01  -2.7784556406911415e-01  -1.8130934052039624e-01  -1.7766865605843599e-01  -2.0845004602908868e-01  -2.5256004003656929e-01  -1.0363016730333202e-01  -2.6795026044938880e-01  -1.7816246329872165e-01  -1.7404664397396893e-01  -1.7352797183444962e-01  -1.6992188026334923e-01  -1.3967172997587785e-02  -4.8474950163637292e-03  -6.7707570913062886e-03  -6.2915043699624917e-04  8.9983530998329531e-04  3.3912056194645413e-03  -1.6921533417026427e-01  -1.6567083700048851e-01  -7.0976388153200787e-02  -1.6626707440334418e-01  -1.6205389208270435e-01  -1.6156559848480462e-01  -1.5785882314893848e-01  -1.7995110707118517e-01  -2.1439169699293192e-01  -2.3640610458818576e-01  -6.4737117198718002e-03  8.1788534238382959e-03  6.8191922879047261e-03  -3.0436555365932177e-02  -1.5272471149114680e-03  2.3145169518585516e-03  2.1782132357121074e-03  9.5744737764383425e-03  1.9192859611076132e-03  1.1577128250253307e-02  1.7857648469875992e-03  1.3139718423555637e-02  2.2574953001907767e-03  1.4270224597535902e-02  3.3351872207516334e-03  1.5240356901592679e-02  5.1896182094488376e-03  1.5948390749176998e-02  7.3225495907014021e-03  1.5915159890087151e-02  9.3617476164427234e-03  1.4872510124448115e-02  1.0680938468155833e-02  1.2707144909533372e-02  1.1047058817159380e-02  9.3715087685365892e-03  1.00