<?xml version="1.0"?>
<VTKFile type="UnstructuredGrid"  version="0.1"  >
<UnstructuredGrid>
<Piece  NumberOfPoints="2945" NumberOfCells="5525">
<Points>
<DataArray  type="Float64"  NumberOfComponents="3"  format="ascii">0 0.1 0  0.95 0.1 0  1 0.1 0  1 0 0  1.5 0 0  3 0 0  3 0.3 0  0 0.3 0  0.0197424558707114 0.1 0  0.03915669042224804 0.1 0  0.05824816022699029 0.1 0  0.07702223050332387 0.1 0  0.09548417327144595 0.1 0  0.1136391897583987 0.1 0  0.1314923700144587 0.1 0  0.1490487330862866 0.1 0  0.1663132263225292 0.1 0  0.1832906857273058 0.1 0  0.1999858946008978 0.1 0  0.216403545770297 0.1 0  0.2325482404045023 0.1 0  0.2484245348165176 0.1 0  0.2640368740372501 0.1 0  0.2793896589642241 0.1 0  0.2944872056237027 0.1 0  0.3093337469555254 0.1 0  0.3239334613687816 0.1 0  0.3382904528528069 0.1 0  0.3524087553122972 0.1 0  0.3662923366391824 0.1 0  0.3799451014768399 0.1 0  0.393370886920506 0.1 0  0.4065734648871676 0.1 0  0.419556546320114 0.1 0  0.4323237821343415 0.1 0  0.4448787573056132 0.1 0  0.4572250047274954 0.1 0  0.4693659926332938 0.1 0  0.4813051343276231 0.1 0  0.4930457849308193 0.1 0  0.5045912455271677 0.1 0  0.5159447600209797 0.1 0  0.5271095174127136 0.1 0  0.5380886618453393 0.1 0  0.5488852725463512 0.1 0  0.5595023868312478 0.1 0  0.5699429904313016 0.1 0  0.5802100167387366 0.1 0  0.5903063508274641 0.1 0  0.6002348329443006 0.1 0  0.6099982499579832 0.1 0  0.6195993483501782 0.1 0  0.6290408246013842 0.1 0  0.6383253354321616 0.1 0  0.6474554910757137 0.1 0  0.6564338522440513 0.1 0  0.6652629482939147 0.1 0  0.6739452579188948 0.1 0  0.6824832240165607 0.1 0  0.6908792415022103 0.1 0  0.6991356755989045 0.1 0  0.7072548438546967 0.1 0  0.7152390281534421 0.1 0  0.7230904746196039 0.1 0  0.7308113906759266 0.1 0  0.7384039435269326 0.1 0  0.7458702676581656 0.1 0  0.7532124631720397 0.1 0  0.7604325921167397 0.1 0  0.7675326856666862 0.1 0  0.7745147374421916 0.1 0  0.7813807123989068 0.1 0  0.7881325374362798 0.1 0  0.7947721131625659 0.1 0  0.8013013031866276 0.1 0  0.8077219449067021 0.1 0  0.8140358419942376 0.1 0  0.8202447685401882 0.1 0  0.8263504700910924 0.1 0  0.8323546643163114 0.1 0  0.8382590362474568 0.1 0  0.8440652473522128 0.1 0  0.8497749272799842 0.1 0  0.8553896837646281 0.1 0  0.8609110933285474 0.1 0  0.866340708855119 0.1 0  0.8716800550492284 0.1 0  0.8769306339052932 0.1 0  0.8820939206038667 0.1 0  0.8871713655604893 0.1 0  0.8921643975475726 0.1 0  0.8970744196575535 0.1 0  0.9019028106970642 0.1 0  0.9066509291259979 0.1 0  0.9113201098984042 0.1 0  0.9159116634553873 0.1 0  0.9204268818729691 0.1 0  0.9248670319440222 0.1 0  0.9292333656649013 0.1 0  0.9335271075812669 0.1 0  0.9377494640511216 0.1 0  0.941901623463222 0.1 0  0.9459847526686701 0.1 0  0.9538461538461205 0.1 0  0.9576923076922409 0.1 0  0.9615384615384381 0.1 0  0.9653846153846337 0.1 0  0.9692307692307542 0.1 0  0.9730769230768747 0.1 0  0.9769230769229952 0.1 0  0.9807692307691157 0.1 0  0.9846153846152361 0.1 0  0.9884615384614317 0.1 0  0.9923076923076356 0.1 0  0.9961538461538395 0.1 0  1 0.09591793123533533 0  1 0.09133596463859224 0  1 0.08619288104391448 0  1 0.08041996484521211 0  1 0.07394008421771697 0  1 0.06666666567302955 0  1 0.05850252932209174 0  1 0.04933859630113544 0  1 0.03905242821848202 0  1 0.02750659386753798 0  1 0.01454683679239736 0  1.015625 0 0  1.03125 0 0  1.046875 0 0  1.0625 0 0  1.078125 0 0  1.09375 0 0  1.109375 0 0  1.125 0 0  1.140625 0 0  1.15625 0 0  1.171875 0 0  1.1875 0 0  1.203125 0 0  1.21875 0 0  1.234375 0 0  1.25 0 0  1.265625 0 0  1.28125 0 0  1.296875 0 0  1.3125 0 0  1.328125 0 0  1.34375 0 0  1.359375 0 0  1.375 0 0  1.390625 0 0  1.40625 0 0  1.421875 0 0  1.4375 0 0  1.453125 0 0  1.46875 0 0  1.484375 0 0  1.515920751924515 0 0  1.531989369316721 0 0  1.54820720925872 0 0  1.564575665560501 0 0  1.581096138674279 0 0  1.597770029901263 0 0  1.614598783332311 0 0  1.631583831055205 0 0  1.64872661129721 0 0  1.666028606716533 0 0  1.683491276608443 0 0  1.701116134125304 0 0  1.718904673324128 0 0  1.736858414799339 0 0  1.754978895814663 0 0  1.773267661782904 0 0  1.791726281103402 0 0  1.810356325314689 0 0  1.8291593848892 0 0  1.848137076690385 0 0  1.867291007717254 0 0  1.886622833871288 0 0  1.90613418642363 0 0  1.925826753299799 0 0  1.945702199101513 0 0  1.96576223584749 0 0  1.986008569283268 0 0  2.006442931928877 0 0  2.02706707547783 0 0  2.047882750887917 0 0  2.06889175187935 0 0  2.090095860038271 0 0  2.111496891648636 0 0  2.133096679109554 0 0  2.154897066851056 0 0  2.176899916687499 0 0  2.199107102752146 0 0  2.22152053937028 0 0  2.244142122958061 0 0  2.266973806444078 0 0  2.290017523268154 0 0  2.313275249499252 0 0  2.336748971745516 0 0  2.360440702338606 0 0  2.384352453384031 0 0  2.408486280477412 0 0  2.432844240041185 0 0  2.457428414757088 0 0  2.482240901796653 0 0  2.507283830121838 0 0  2.532559332080812 0 0  2.558069568787417 0 0  2.583816724966441 0 0  2.60980299606584 0 0  2.636030600971886 0 0  2.662501790984011 0 0  2.689218818279327 0 0  2.716183964547616 0 0  2.743399548861297 0 0  2.77086788244719 0 0  2.798591312896326 0 0  2.826572223178268 0 0  2.854812990138617 0 0  2.883316031690714 0 0  2.912083780657189 0 0  2.941118704633482 0 0  2.970423276998917 0 0  3 0.02999999999994495 0  3 0.05999999999987042 0  3 0.089999999999783 0  3 0.119999999999701 0  3 0.149999999999619 0  3 0.179999999999692 0  3 0.2099999999997737 0  3 0.2399999999998511 0  3 0.2699999999999185 0  2.970138294777171 0.3 0  2.940375666438236 0.3 0  2.910711782853056 0.3 0  2.881146331305122 0.3 0  2.851678975030285 0.3 0  2.822309388626621 0.3 0  2.793037250095074 0.3 0  2.76386223529133 0.3 0  2.734784017903872 0.3 0  2.705802289276642 0.3 0  2.676916713794697 0.3 0  2.648126987654635 0.3 0  2.619432780406184 0.3 0  2.590833779385199 0.3 0  2.562329669847737 0.3 0  2.533920134950189 0.3 0  2.505604855727852 0.3 0  2.477383539822502 0.3 0  2.449255847639465 0.3 0  2.421221492569094 0.3 0  2.393280152486815 0.3 0  2.36543151914496 0.3 0  2.337675285481809 0.3 0  2.310011142385583 0.3 0  2.282438797441587 0.3 0  2.254957931061538 0.3 0  2.227568248063605 0.3 0  2.200269436651085 0.3 0  2.173061204949961 0.3 0  2.145943251515011 0.3 0  2.118915272469994 0.3 0  2.091976978084957 0.3 0  2.065128060700849 0.3 0  2.038368218849433 0.3 0  2.01169717777258 0.3 0  1.985114624111908 0.3 0  1.958620267850966 0.3 0  1.93221382054972 0.3 0  1.905894991850698 0.3 0  1.879663489459713 0.3 0  1.853519019126419 0.3 0  1.827461291053897 0.3 0  1.801490031354372 0.3 0  1.775604937580312 0.3 0  1.74980572560258 0.3 0  1.724092118631866 0.3 0  1.698463829173586 0.3 0  1.672920575782554 0.3 0  1.647462076974085 0.3 0  1.622088043536933 0.3 0  1.5967981978949 0.3 0  1.571592267767068 0.3 0  1.546469970305736 0.3 0  1.521431023814044 0.3 0  1.496475156230927 0.3 0  1.471602093687753 0.3 0  1.446811560490646 0.3 0  1.422103279101731 0.3 0  1.397476971708191 0.3 0  1.37293238939876 0.3 0  1.348469231419202 0.3 0  1.324087248732772 0.3 0  1.299786165921677 0.3 0  1.275565710847046 0.3 0  1.251425617644257 0.3 0  1.227365618676339 0.3 0  1.203385446174014 0.3 0  1.179484853067473 0.3 0  1.155663548773374 0.3 0  1.131921292279077 0.3 0  1.108257802159295 0.3 0  1.084672829009693 0.3 0  1.061166115303374 0.3 0  1.037737392995421 0.3 0  1.01438640299116 0.3 0  0.991112899770314 0.3 0  0.9679166155523955 0.3 0  0.944797284182564 0.3 0  0.921754678526042 0.3 0  0.8987885143602501 0.3 0  0.8758985548820624 0.3 0  0.8530845484099929 0.3 0  0.8303462351786988 0.3 0  0.8076833651172373 0.3 0  0.7850956864865304 0.3 0  0.7625829601354557 0.3 0  0.7401449314598274 0.3 0  0.717781337993959 0.3 0  0.6954919649675473 0.3 0  0.6732765357561226 0.3 0  0.6511348120768439 0.3 0  0.6290665642016573 0.3 0  0.6070715355430467 0.3 0  0.5851494825775325 0.3 0  0.5633001690203812 0.3 0  0.5415233562273221 0.3 0  0.5198187909431873 0.3 0  0.4981862401387795 0.3 0  0.4766254686134248 0.3 0  0.4551362360485234 0.3 0  0.4337182975262159 0.3 0  0.4123714223228037 0.3 0  0.3910953802377493 0.3 0  0.3698899313205595 0.3 0  0.3487548463710963 0.3 0  0.3276898864081783 0.3 0  0.3066948129116018 0.3 0  0.2857694003037476 0.3 0  0.2649134227095047 0.3 0  0.2441266417321288 0.3 0  0.2234088223399122 0.3 0  0.2027597568977288 0.3 0  0.1821792020676698 0.3 0  0.1616669305402443 0.3 0  0.1412227158799362 0.3 0  0.12084633013886 0.3 0  0.1005375673448281 0.3 0  0.08029618164595353 0.3 0  0.06012194778526769 0.3 0  0.04001466495039718 0.3 0  0.01997408913631205 0.3 0  0 0.2800000000000553 0  0 0.2600000000001105 0  0 0.2400000000001658 0  0 0.2200000000002211 0  0 0.2000000000002764 0  0 0.1800000000002244 0  0 0.1600000000001691 0  0 0.140000000000115 0  0 0.1200000000000564 0  1.133778471000506 0.01219539743990768 0  1.003741919047894 0.09354664821474232 0  0.9559421147150347 0.1035858189992458 0  0.9313792160389045 0.1037365237938103 0  0.9788461538460573 0.1033060829993555 0  0.9090102438250753 0.1037269304984056 0  0.8846304212778655 0.1043349840723655 0  0.8581503885465881 0.104741932962923 0  0.8286416220145676 0.1052762843984476 0  0.7982741772533339 0.1053575624517407 0  0.7708789559342691 0.1060290465840416 0  0.741870349714261 0.1078220590984258 0  0.7112469360040695 0.10685702926368 0  0.6783901541417233 0.1079959711853378 0  0.642884733623195 0.1075561996086514 0  0.6056235042367955 0.1085956039602543 0  0.5647007593786924 0.1083187281660325 0  1.1953125 0.01353164693413185 0  1.258148737344733 0.01268350115427042 0  1.320087046516829 0.01426312402966312 0  1.383495130751951 0.01432665475473204 0  1.4453125 0.01315663539200989 0  1.50886768312388 0.01395488397722681 0  0.9942307692307371 0.103330866937657 0  1.119309781943483 0.2802014914557878 0  1.572831235329714 0.01707210522554785 0  1.637611634353954 0.01209340368483431 0  1.709661292005932 0.0146870244871893 0  1.006561890631532 0.07068055446055937 0  1.784793444007901 0.01499371444634687 0  1.855459587353174 0.0
[...]
<PointData  Scalars="pressure"> 
<DataArray  type="Float64"  Name="pressure"  format="ascii">-2.6856047305157050e-02  -3.7310552822926685e-01  -2.8318744427469839e-01  -2.4651151361042670e-01  -5.6125323376193637e-02  0.0000000000000000e+00  0.0000000000000000e+00  -2.6833876581934802e-02  -3.2778761322913352e-02  -3.8603240110076729e-02  -4.4331184070633932e-02  -4.9964229609610347e-02  -5.5504028382752355e-02  -6.0952125991996023e-02  -6.6310114865610004e-02  -7.1579560302875975e-02  -7.6761924099356116e-02  -8.1858832687129346e-02  -8.6871744705209156e-02  -9.1802086462294999e-02  -9.6651401239449555e-02  -1.0142109120879306e-01  -1.0611266789130931e-01  -1.1072751082450401e-01  -1.1526714318443503e-01  -1.1973288135177959e-01  -1.2412625384686019e-01  -1.2844855571457173e-01  -1.3270141163787558e-01  -1.3688607210999570e-01  -1.4100368537630092e-01  -1.4505622472476890e-01  -1.4904477861279572e-01  -1.5297091532155196e-01  -1.5683584779021573e-01  -1.6064123227855340e-01  -1.6438843114414192e-01  -1.6807892692247839e-01  -1.7171416293274053e-01  -1.7529523472695444e-01  -1.7882445819934872e-01  -1.8230285925826029e-01  -1.8573189759708050e-01  -1.8911316207114387e-01  -1.9244843028886571e-01  -1.9573899590267457e-01  -1.9898663725192323e-01  -2.0219284085277539e-01  -2.0535951906164071e-01  -2.0848813147137824e-01  -2.1158040951008722e-01  -2.1463793561572025e-01  -2.1766267778462003e-01  -2.2065613922817814e-01  -2.2362049748291352e-01  -2.2655717836062630e-01  -2.2946817297782116e-01  -2.3235558184999605e-01  -2.3522116047928560e-01  -2.3806625455556946e-01  -2.4089466915814345e-01  -2.4370537185543531e-01  -2.4650257754648200e-01  -2.4928794487651620e-01  -2.5206287936214611e-01  -2.5483149948018718e-01  -2.5759425829541921e-01  -2.6035106477115244e-01  -2.6310769124768579e-01  -2.6586584030260590e-01  -2.6862829118137938e-01  -2.7139559879291186e-01  -2.7416793633209036e-01  -2.7695371032056404e-01  -2.7975184630515054e-01  -2.8256592600610619e-01  -2.8539862415380429e-01  -2.8825243103687864e-01  -2.9113003967147821e-01  -2.9403579124871904e-01  -2.9697143675463467e-01  -2.9993982345685005e-01  -3.0294712964456205e-01  -3.0599698136793002e-01  -3.0909114278892852e-01  -3.1223629515186774e-01  -3.1543865323063264e-01  -3.1870093994354631e-01  -3.2202798774642716e-01  -3.2543617273225184e-01  -3.2892449073289376e-01  -3.3250545485358091e-01  -3.3618556328631782e-01  -3.3999319287756502e-01  -3.4391909194360043e-01  -3.4792311966389877e-01  -3.5292639146660498e-01  -3.5286840425048660e-01  -3.7957745693770750e-01  -3.4275963073598026e-01  -3.7570286096915245e-01  -3.7533550656074999e-01  -3.8501557958433041e-01  -3.9674135129769805e-01  -4.2140936143312047e-01  -4.2844191394742120e-01  -4.2712953832514294e-01  -4.1798810819428345e-01  -4.0345556672473981e-01  -3.8504162590147917e-01  -3.6446287115079723e-01  -3.4285772957939414e-01  -3.2131521555932074e-01  -3.0214509355748259e-01  -2.7571254795173550e-01  -2.8081486327704441e-01  -2.6079227092074769e-01  -2.5441067659959454e-01  -2.5006976949206411e-01  -2.4758366956225031e-01  -2.4603980960018423e-01  -2.4507289631385026e-01  -2.4461930752920275e-01  -2.4467957647800753e-01  -2.4525606139298625e-01  -2.4618002494086927e-01  -2.4692971712240427e-01  -2.4805974174814358e-01  -2.4928071222256193e-01  -2.5074094222519133e-01  -2.5252636302646331e-01  -2.5452053017830317e-01  -2.5643914549017405e-01  -2.5803865154279426e-01  -2.5892196513243620e-01  -2.5863301737539213e-01  -2.5674605090042968e-01  -2.5290679911526626e-01  -2.4681564048166610e-01  -2.3832415728975989e-01  -2.2747715108037406e-01  -2.1455660255920145e-01  -1.9995324369698816e-01  -1.8410845291210623e-01  -1.6760170341732156e-01  -1.5118251792187598e-01  -1.3500167578492359e-01  -1.1998694205767041e-01  -1.0617580517827101e-01  -9.3955030875301493e-02  -8.3360905613863570e-02  -7.4729831921328704e-02  -6.7777701658586390e-02  -6.2567426647077415e-02  -5.8939864740571751e-02  -5.6771630695615284e-02  -5.5897998428557354e-02  -5.7303311154115133e-02  -5.9220105086314159e-02  -6.1670299717915759e-02  -6.4366850083093008e-02  -6.7142857590657759e-02  -6.9542337406687887e-02  -7.1416467749853788e-02  -7.2281917588108632e-02  -7.2000276647648881e-02  -7.0366962417260343e-02  -6.7280678198814975e-02  -6.2759143743038343e-02  -5.6918889057572045e-02  -5.0030808889535622e-02  -4.2420550622455144e-02  -3.4487321598974829e-02  -2.6637164779913448e-02  -1.9355506979733070e-02  -1.2758490002651052e-02  -7.3392716505751247e-03  -3.1123608441089058e-03  -1.5785628703259946e-04  1.5102941861014189e-03  2.0097710319234310e-03  1.4369815908710927e-03  -3.8417754762768298e-05  -2.2629015355227805e-03  -5.1880173580794373e-03  -8.6555880761304254e-03  -1.2577652421443482e-02  -1.6856989534693900e-02  -2.1249139514330155e-02  -2.5455063237889809e-02  -2.9070430061298960e-02  -3.1657380405066764e-02  -3.2741301961302094e-02  -3.1968007574343017e-02  -2.9179015698139216e-02  -2.4430615207554487e-02  -1.8089679296588102e-02  -1.0720416070409328e-02  -3.0324700038119779e-03  4.2613014640044168e-03  1.0510677758334154e-02  1.5261205159988640e-02  1.8242186821129207e-02  1.9417847160643393e-02  1.8905283774610249e-02  1.6949869689942054e-02  1.3793619734590236e-02  9.6629514098297356e-03  4.9856309643528602e-03  -2.8672269476081864e-04  -5.6275111272674483e-03  -1.0801295117889641e-02  -1.5512019324518627e-02  -1.8964665303574050e-02  -2.0878996485300727e-02  -2.0863574699055989e-02  -1.8868418728329513e-02  -1.5107306037892551e-02  -1.0098599951159295e-02  -4.7952691882752656e-03  -1.7218777035804403e-05  3.2651094527500705e-03  4.6735450891382977e-03  3.6523582604397246e-03  0.0000000000000000e+00  0.0000000000000000e+00  0.0000000000000000e+00  0.0000000000000000e+00  0.0000000000000000e+00  0.0000000000000000e+00  0.0000000000000000e+00  0.0000000000000000e+00  0.0000000000000000e+00  -6.2294715262714063e-04  1.0701940380720663e-03  4.2554180448099834e-03  8.2168551916068228e-03  1.2455908626829092e-02  1.6485804645090276e-02  1.9954712326853304e-02  2.2504217215464400e-02  2.3728109920661902e-02  2.3223906755796241e-02  2.0655439756926453e-02  1.5900103523741212e-02  9.1451824923374520e-03  9.4717512617837252e-04  -7.7542525213699417e-03  -1.5812753540763242e-02  -2.2073135512055128e-02  -2.5596607613584628e-02  -2.5930859613250090e-02  -2.3170681367273117e-02  -1.7906535198304891e-02  -1.1038077111898281e-02  -3.5167396767576018e-03  3.8170833678464193e-03  1.0389726636074754e-02  1.5741013422459683e-02  1.9466492919579786e-02  2.1238002081384127e-02  2.0577013832051894e-02  1.7136959467960875e-02  1.0641557728883000e-02  1.2314739103729704e-03  -1.0811664890687198e-02  -2.4199602826629852e-02  -3.7689596640157030e-02  -5.0251956020689624e-02  -5.9942207013177248e-02  -6.6264163954361716e-02  -6.8794196004831956e-02  -6.7965730193818005e-02  -6.4953782165458399e-02  -6.0391018545457982e-02  -5.5770341238065943e-02  -5.1834262593899345e-02  -4.9177437122094415e-02  -4.8122688960216452e-02  -4.8810994302663981e-02  -5.1306275537879774e-02  -5.5564307418981176e-02  -6.1575343405438437e-02  -6.9321448599297023e-02  -7.8605165927217183e-02  -8.9394972101369347e-02  -1.0104796541317142e-01  -1.1327313280494540e-01  -1.2551943931576007e-01  -1.3730019594692783e-01  -1.4817422582083536e-01  -1.5787743906036947e-01  -1.6629313504133039e-01  -1.7350498114757706e-01  -1.7964546752250132e-01  -1.8499306558416875e-01  -1.8989069815899173e-01  -1.9457919860824407e-01  -1.9934082800084088e-01  -2.0434297642691668e-01  -2.0971612375701276e-01  -2.1550698045082847e-01  -2.2169469261714331e-01  -2.2810421216059537e-01  -2.3471716790189784e-01  -2.4128648150831244e-01  -2.4756517360308203e-01  -2.5311610609616852e-01  -2.5802183552747066e-01  -2.6174169927229518e-01  -2.6439891305439106e-01  -2.6602105956596828e-01  -2.6608034839704420e-01  -2.6506530814632329e-01  -2.6300578408137093e-01  -2.6015584500490285e-01  -2.5656019157592780e-01  -2.5232477318480012e-01  -2.4758081547545782e-01  -2.4248266299090390e-01  -2.3707822466114811e-01  -2.3140482566408746e-01  -2.2556563006167049e-01  -2.1957098685603446e-01  -2.1347349980519217e-01  -2.0729316225230462e-01  -2.0104725284054908e-01  -1.9475441626201140e-01  -1.8843442279649636e-01  -1.8209215011950419e-01  -1.7573679317458132e-01  -1.6937614233504975e-01  -1.6301713564657680e-01  -1.5666314138580117e-01  -1.5031495360983044e-01  -1.4397791573697588e-01  -1.3765298264392217e-01  -1.3134248169004967e-01  -1.2504698413809140e-01  -1.1876757322602642e-01  -1.1250610957306137e-01  -1.0626166414795200e-01  -1.0003619820810584e-01  -9.3829093135290295e-02  -8.7641007808165028e-02  -8.1472343076384804e-02  -7.5322868555120381e-02  -6.9192975017190669e-02  -6.3082667328047348e-02  -5.6991999124485396e-02  -5.0921002317767798e-02  -4.4869679280762055e-02  -3.8838041336617370e-02  -3.2826103752654934e-02  -2.6833937221481353e-02  -2.6834844249308754e-02  -2.6837117226625521e-02  -2.6840652218523317e-02  -2.6844957073223201e-02  -2.6849255044268886e-02  -2.6852803049952960e-02  -2.6855058657701329e-02  -2.6855969459366923e-02  -2.5775306364584644e-01  -2.6325976495205033e-01  -4.1484350315841101e-01  -3.6244829794563066e-01  -3.6696642929198642e-01  -3.4233199516930918e-01  -3.2398290973831001e-01  -3.0772397578969529e-01  -2.9237561477468715e-01  -2.7855112465862658e-01  -2.6726765413738846e-01  -2.5618307304057447e-01  -2.4514998785265696e-01  -2.3388432580474300e-01  -2.2216095151939513e-01  -2.1021301631171987e-01  -1.9736745618831855e-01  -2.4974574510765135e-01  -2.0771720881891395e-01  -1.4437045865088383e-01  -8.9022460415984953e-02  -6.1096389765069724e-02  -5.6731986616788854e-02  -2.8621892410893252e-01  -2.2416558378043561e-01  -6.5538404666970862e-02  -7.2253522301888154e-02  -6.0685992833610376e-02  -2.4725136552275795e-01  -3.0415621607572847e-02  -6.0893078526404187e-03  -1.8413249274563967e-01  1.9169261469125902e-03  -2.0084678779166382e-01  -1.8167371534239696e-01  -7.1274705342184554e-03  -1.5296661250484431e-01  -1.6969012659469124e-01  -9.6807886396300183e-02  -2.2649789309064725e-02  -1.5557094457015716e-01  -2.5265361643896339e-01  -3.2693275704464661e-02  -5.3013618144481703e-02  -2.4342294468121820e-01  -1.3940805035337517e-01  -1.5236771742378445e-02  -5.7309659406296488e-02  -1.2163434821054664e-01  -6.8735583638427231e-02  1.2761843982823463e-02  -5.5896068146698605e-02  -2.6234851745640414e-01  1.8095037647504288e-02  -1.0376766066646929e-01  -1.8065158527642081e-02  -2.6534831208672699e-01  -2.5793520496279315e-01  1.4015608479827874e-02  3.0323284272754268e-03  -8.3868123600229258e-02  -6.9062696251972353e-02  -4.8020719175174788e-02  -1.2884799972179815e-02  -2.1377243536009630e-02  -2.4002230209254638e-01  2.0725565684554373e-02  4.1084029863375926e-04  -2.2232649004999400e-01  -3.8017949333019185e-01  -4.1767790277982542e-01  -2.0433120049137041e-01  -2.0603111947798212e-02  -1.3621367288327501e-02  -1.7977574793489368e-01  -2.0199836334361430e-02  -1.4731940291174889e-01  4.3603703326347762e-03  -1.1563583384498596e-01  2.2150339905904051e-02  -9.7033822367526182e-02  -6.0167770636847077e-02  -7.8252153763851903e-02  2.1780337547228759e-02  -3.1888896210251108e-02  -5.7005589527239005e-04  -5.2544589101400897e-02  -2.4528053144866946e-01  1.1248136480841234e-02  1.6046478305629065e-03  -2.5168036857431442e-01  -2.4910915741145015e-01  -2.5445213916206461e-01  -2.1179782336767017e-01  -2.5004789372237918e-01  -1.9154607200681284e-01  -1.6649903954135489e-01  -1.3375903658325666e-01  -7.3867896191640872e-02  -1.3130669236358081e-01  -1.6898048767537638e-01  -1.9137754996559653e-01  -9.4227328299818155e-02  -1.1291708346165982e-01  1.3702449977102188e-02  -2.6632016306866211e-02  -1.3011130328386486e-01  1.2498992017242637e-02  -4.7991949021636414e-02  1.9119756212305668e-02  6.6967435440375676e-05  -1.4735875295415171e-01  -2.7545420932632948e-02  -3.1916202449155030e-02  -3.0113252779897470e-02  -1.6241843885821042e-01  -1.3670247239092432e-02  -1.0873964476580502e-03  -6.0283479843259352e-02  4.2163440259875321e-04  -1.7720109112508636e-01  -1.6681859574888741e-02  -4.7112193289031476e-02  -6.9461678335558386e-02  -1.9090339932178135e-01  -7.0463987835304734e-02  2.8475167846527790e-03  -2.0378817284640538e-01  -2.1620983427396137e-01  -2.2828975910985752e-01  -2.3919358924335157e-01  -2.5091151766207187e-01  -2.6181185110395117e-01  -2.7314632246196863e-01  -2.8693654519605877e-01  -2.5707246257228578e-01  -3.0159404493003883e-01  -3.1738186623304587e-01  -3.3467178240647938e-01  -2.3330387575741590e-01  -3.5501470442672822e-01  -1.1445142822938945e-01  -1.7529640114243969e-01  -7.2884233260222031e-02  -5.6484869221354178e-02  -3.1499167106045896e-02  -3.2410120956503835e-01  -1.9073447254807081e-03  -4.1505909423862168e-02  2.7817800879803207e-03  -2.4705915965930367e-01  3.6323910191562868e-03  -3.1357455903014787e-02  -2.4795432662155525e-01  -2.4775248925758458e-01  -2.4875246500274456e-01  -2.4760537694468829e-01  -2.4862276970781699e-01  -2.4755741692311409e-01  -2.4871229875853540e-01  -2.4742812776610265e-01  -2.4872106615764125e-01  -2.4695719926453730e-01  -2.4854679405558291e-01  -2.4598738234272738e-01  -2.4819064405167734e-01  -2.4501726354375694e-01  -2.4802430530194014e-01  -2.4485212374407281e-01  -2.4872193366786252e-01  -2.4590525536911750e-01  -2.5043229370833725e-01  -2.4815751581196019e-01  -2.5222087150598760e-01  -2.4448296831180386e-01  -2.5601638021461187e-01  -2.5664723176943632e-01  -2.4693340231084962e-01  -2.4483704592717109e-01  -2.6150114978247507e-01  -2.6045400663088975e-01  -2.6578961353912423e-01  -2.6256328619695607e-01  -2.6831306960630624e-01  -2.6218830283636296e-01  -2.6735107349795334e-01  -2.5887298731557085e-01  -2.6253359580036850e-01  -2.5011834656567189e-01  -2.5255341965691436e-01  -2.3965049704434768e-01  -2.3878327236268834e-01  -2.2598369322542666e-01  -2.2186366312056230e-01  -2.0840477070062527e-01  -2.0256531081910956e-01  -1.9257351561652369e-01  -1.8292428398256547e-01  -1.7563070192458721e-01  -1.6353467037415814e-01  -1.6020108347221942e-01  -1.4553091132394358e-01  -1.4567758699196615e-01  -1.3011440835834584e-01  -2.4689720212773816e-01  -2.4700226487657193e-01  -1.3271319384314426e-01  -1.1421831292655737e-01  -1.2135707327178763e-01  -1.0398707104049730e-01  -1.1248163063773155e-01  -9.5341853654865957e-02  -1.0485181596542614e-01  -8.8323182245155063e-02  -9.8468506767436029e-02  -8.3088279096625639e-02  -2.5434152531466686e-01  -9.3094709184546640e-02  -7.9285848207249210e-02  -8.8529758810633338e-02  -7.6663448935319789e-02  -8.4686230615554928e-02  -7.4957193554908111e-02  -2.4779638753686825e-01  -2.4994511427260202e-01  -2.4307831484325043e-01  -8.1112456811578706e-02  -7.3827639092341732e-02  -2.4506742541165391e-01  -7.7642622854155491e-02  -7.2993975177983797e-02  -7.4540355523844970e-02  -7.2240558809995650e-02  -7.1397577386167102e-02  -7.1198979206988117e-02  -2.5353063811702925e-01  -6.8122343874541302e-02  -6.9693570164119076e-02  -6.4787176647256112e-02  -6.7568693862317231e-02  -6.1392960511845604e-02  -6.4819707501244703e-02  -2.5139435894898904e-01  -2.2688913724216442e-01  -5.7977425400634622e-02  -6.1437362524820884e-02  -2.4928810281465910e-01  -2.5369615746457941e-01  -2.4661189566196223e-01  -1.8520103806507845e-01  -5.4315663032812267e-02  -5.7770429975868010e-02  -5.1474785843635434e-02  -5.4115435808490639e-02  -4.9470637005199269e-02  -5.0999654635655034e-02  -6.8043529664999547e-02  -6.4784272111060970e-02  -7.1936241978607304e-02  -7.0515326910905896e-02  -4.8602239859246200e-02  -4.8754396124484158e-02  -5.0327382970217424e-02  -4.6238284786401185e-02  -4.7633151380897631e-02  -4.3104712563980491e-02  -4.7571784442544250e-02  -4.0950058807941142e-02  -4.8500387225255487e-02  -3.9960273132596959e-02  -5.0034051946425184e-02  -3.9616473359374141e-02  -5.1450270820502811e-02  -3.9526896030090748e-02  -5.2570152456630728e-02  -3.9194135349891891e-02  -5.2071502174052639e-02  -3.7536247188230079e-02  -5.0000819452896694e-02  -3.5471880027692325e-02  -4.6053367999532815e-02  -3.2484348270699633e-02  -4.0825890421715423e-02  -2.8695399924292569e-02  -8.9320241183847293e-02  -1.4848109587445310e-01  -3.3870306507544745e-02  -2.4567619690065629e-02  -2.6092108329951385e-02  -2.0217988673966823e-02  -2.7128189879648357e-01  -1.8390138029605579e-02  -1.6466454073413458e-02  -1.7113660977121833e-01  -2.3371893225959994e-01  -2.5102912010699036e-01  -2.5591718953482218e-01  -2.6010288956377459e-01  -2.6333875413552466e-01  -2.6844870109320046e-01  -2.7179512022851715e-01  -2.7836525670080114e-01  -2.8088867681695351e-01  -2.8968425770469969e-01  -2.8994243405745912e-01  -3.0086310851881271e-01  -2.9807956139285580e-01  -3.1087149772643807e-01  -3.0540294027352310e-01  -3.2054669403068142e-01  -3.1198830077324657e-01  -3.2346466975950833e-01  -3.1360321377669753e-01  -3.2492720369450001e-01  -3.1630586955011286e-01  -3.2460165167854726e-01  -3.1580248177510573e-01  -3.2250253606406615e-01  -3.1398300786490163e-01  -3.1926548893526180e-01  -3.1128950095781815e-01  -3.1537772400171965e-01  -3.0794764521826656e-01  -3.0785602294624070e-01  -3.0350464517187792e-01  -3.0063778561335747e-01  -3.0419399671851977e-01  -2.9745111826039095e-01  -3.0019636230375529e-01  -2.9398380167601967e-01  -2.9621072557994288e-01  -2.9037422378092381e-01  -2.9112121507261657e-01  -2.9285295220912588e-01  -2.8669428752400256e-01  -2.8779200695690027e-01  -2.8266388072764109e-01  -2.8119924566811844e-01  -2.7757801996642534e-01  -2.7863368934028460e-01  -2.7389369531770824e-01  -2.7444134705460416e-01  -2.7009989605634538e-01  -2.7280066006640075e-01  -2.7028204106172904e-01  -2.6622407202349829e-01  -2.6560897242367065e-01  -2.6197307366663153e-01  -2.6236726622876377e-01  -2.5827876257549603e-01  -2.5848518844816171e-01  -2.5454540947780346e-01  -3.2501346399826792e-01  -3.0134631099079184e-01  -3.0006258466102920e-01  -3.3399970724594774e-01  -2.5457690225886831e-01  -2.5074641614187831e-01  -2.5061260899284082e-01  -2.4688147896497770e-01  -2.4688936167504855e-01  -2.4311689912273263e-01  -2.4296432406076235e-01  -2.3927959561948511e-01  -2.3938002196802644e-01  -2.3562249633713969e-01  -2.3534062966166397e-01  -2.3177946007586506e-01  -2.7600884160168826e-01  -2.3135867197936424e-01  -2.2792254783550389e-01  -3.3157964787504357e-01  -2.7979216785033062e-01  -2.6128357828875226e-01  -3.2288356377386107e-01  -2.2742275982300439e-01  -2.2393802785251080e-01  -2.2467398472046543e-01  -2.2047660299353353e-01  -2.2001182585781692e-01  -2.1642126006551241e-01  -2.1688688419144977e-01  -2.1285244592126007e-01  -2.1235046943447128e-01  -2.0880868817670240e-01  -3.0206246875674841e-01  -2.0827850027523173e-01  -2.0468562427873985e-01  -2.3550990583376713e-01  -2.7803094170213405e-01  -1.2245405049087416e-01  -2.9256202739547871e-01  -2.0523449656568121e-01  -2.0110508088025811e-01  -2.0054134011004154e-01  -1.9697113510403239e-01  -1.1257573031158508e-02  -1.3123203166701432e-02  -5.0930575086313374e-03  -1.0476870101594019e-02  -1.2032857607090166e-04  -8.2560134087183452e-03  -1.9622812563121766e-01  -1.9271435748106611e-01  -9.0530094923687743e-02  -1.9334652585176978e-01  -1.8912384161149509e-01  -1.8860647733926891e-01  -1.8492250725343135e-01  -2.4657534811673321e-01  -2.5976982223058565e-01  -2.6243408684903868e-01  -2.6130633626147759e-02  3.6130359796852991e-03  -6.4035946835866997e-03  -4.7015450868613681e-02  -2.1011818784486311e-02  -1.8112284519912543e-02  -1.7132203774243942e-02  -4.6529206825953358e-03  -1.5362272321617878e-02  -3.1768963867735396e-03  -1.2823689494472951e-02  -1.8566553224967969e-03  -9.7307699595418785e-03  -1.1288174341619842e-03  -6.6944096301055963e-03  -1.1694960261979437e-03  -4.1554571289193071e-03  -2.3332540673465653e-03  -2.7522967113458204e-03  -4.7232881752840659e-03  -2.5560907208878403e-03  -7.9208505937251993e-03  -3.4551724330714718e-03  -1.1343849053344113e-02  -4