<?xml version="1.0"?>
<VTKFile type="UnstructuredGrid"  version="0.1"  >
<UnstructuredGrid>
<Piece  NumberOfPoints="2945" NumberOfCells="5525">
<Points>
<DataArray  type="Float64"  NumberOfComponents="3"  format="ascii">0 0.1 0  0.95 0.1 0  1 0.1 0  1 0 0  1.5 0 0  3 0 0  3 0.3 0  0 0.3 0  0.0197424558707114 0.1 0  0.03915669042224804 0.1 0  0.05824816022699029 0.1 0  0.07702223050332387 0.1 0  0.09548417327144595 0.1 0  0.1136391897583987 0.1 0  0.1314923700144587 0.1 0  0.1490487330862866 0.1 0  0.1663132263225292 0.1 0  0.1832906857273058 0.1 0  0.1999858946008978 0.1 0  0.216403545770297 0.1 0  0.2325482404045023 0.1 0  0.2484245348165176 0.1 0  0.2640368740372501 0.1 0  0.2793896589642241 0.1 0  0.2944872056237027 0.1 0  0.3093337469555254 0.1 0  0.3239334613687816 0.1 0  0.3382904528528069 0.1 0  0.3524087553122972 0.1 0  0.3662923366391824 0.1 0  0.3799451014768399 0.1 0  0.393370886920506 0.1 0  0.4065734648871676 0.1 0  0.419556546320114 0.1 0  0.4323237821343415 0.1 0  0.4448787573056132 0.1 0  0.4572250047274954 0.1 0  0.4693659926332938 0.1 0  0.4813051343276231 0.1 0  0.4930457849308193 0.1 0  0.5045912455271677 0.1 0  0.5159447600209797 0.1 0  0.5271095174127136 0.1 0  0.5380886618453393 0.1 0  0.5488852725463512 0.1 0  0.5595023868312478 0.1 0  0.5699429904313016 0.1 0  0.5802100167387366 0.1 0  0.5903063508274641 0.1 0  0.6002348329443006 0.1 0  0.6099982499579832 0.1 0  0.6195993483501782 0.1 0  0.6290408246013842 0.1 0  0.6383253354321616 0.1 0  0.6474554910757137 0.1 0  0.6564338522440513 0.1 0  0.6652629482939147 0.1 0  0.6739452579188948 0.1 0  0.6824832240165607 0.1 0  0.6908792415022103 0.1 0  0.6991356755989045 0.1 0  0.7072548438546967 0.1 0  0.7152390281534421 0.1 0  0.7230904746196039 0.1 0  0.7308113906759266 0.1 0  0.7384039435269326 0.1 0  0.7458702676581656 0.1 0  0.7532124631720397 0.1 0  0.7604325921167397 0.1 0  0.7675326856666862 0.1 0  0.7745147374421916 0.1 0  0.7813807123989068 0.1 0  0.7881325374362798 0.1 0  0.7947721131625659 0.1 0  0.8013013031866276 0.1 0  0.8077219449067021 0.1 0  0.8140358419942376 0.1 0  0.8202447685401882 0.1 0  0.8263504700910924 0.1 0  0.8323546643163114 0.1 0  0.8382590362474568 0.1 0  0.8440652473522128 0.1 0  0.8497749272799842 0.1 0  0.8553896837646281 0.1 0  0.8609110933285474 0.1 0  0.866340708855119 0.1 0  0.8716800550492284 0.1 0  0.8769306339052932 0.1 0  0.8820939206038667 0.1 0  0.8871713655604893 0.1 0  0.8921643975475726 0.1 0  0.8970744196575535 0.1 0  0.9019028106970642 0.1 0  0.9066509291259979 0.1 0  0.9113201098984042 0.1 0  0.9159116634553873 0.1 0  0.9204268818729691 0.1 0  0.9248670319440222 0.1 0  0.9292333656649013 0.1 0  0.9335271075812669 0.1 0  0.9377494640511216 0.1 0  0.941901623463222 0.1 0  0.9459847526686701 0.1 0  0.9538461538461205 0.1 0  0.9576923076922409 0.1 0  0.9615384615384381 0.1 0  0.9653846153846337 0.1 0  0.9692307692307542 0.1 0  0.9730769230768747 0.1 0  0.9769230769229952 0.1 0  0.9807692307691157 0.1 0  0.9846153846152361 0.1 0  0.9884615384614317 0.1 0  0.9923076923076356 0.1 0  0.9961538461538395 0.1 0  1 0.09591793123533533 0  1 0.09133596463859224 0  1 0.08619288104391448 0  1 0.08041996484521211 0  1 0.07394008421771697 0  1 0.06666666567302955 0  1 0.05850252932209174 0  1 0.04933859630113544 0  1 0.03905242821848202 0  1 0.02750659386753798 0  1 0.01454683679239736 0  1.015625 0 0  1.03125 0 0  1.046875 0 0  1.0625 0 0  1.078125 0 0  1.09375 0 0  1.109375 0 0  1.125 0 0  1.140625 0 0  1.15625 0 0  1.171875 0 0  1.1875 0 0  1.203125 0 0  1.21875 0 0  1.234375 0 0  1.25 0 0  1.265625 0 0  1.28125 0 0  1.296875 0 0  1.3125 0 0  1.328125 0 0  1.34375 0 0  1.359375 0 0  1.375 0 0  1.390625 0 0  1.40625 0 0  1.421875 0 0  1.4375 0 0  1.453125 0 0  1.46875 0 0  1.484375 0 0  1.515920751924515 0 0  1.531989369316721 0 0  1.54820720925872 0 0  1.564575665560501 0 0  1.581096138674279 0 0  1.597770029901263 0 0  1.614598783332311 0 0  1.631583831055205 0 0  1.64872661129721 0 0  1.666028606716533 0 0  1.683491276608443 0 0  1.701116134125304 0 0  1.718904673324128 0 0  1.736858414799339 0 0  1.754978895814663 0 0  1.773267661782904 0 0  1.791726281103402 0 0  1.810356325314689 0 0  1.8291593848892 0 0  1.848137076690385 0 0  1.867291007717254 0 0  1.886622833871288 0 0  1.90613418642363 0 0  1.925826753299799 0 0  1.945702199101513 0 0  1.96576223584749 0 0  1.986008569283268 0 0  2.006442931928877 0 0  2.02706707547783 0 0  2.047882750887917 0 0  2.06889175187935 0 0  2.090095860038271 0 0  2.111496891648636 0 0  2.133096679109554 0 0  2.154897066851056 0 0  2.176899916687499 0 0  2.199107102752146 0 0  2.22152053937028 0 0  2.244142122958061 0 0  2.266973806444078 0 0  2.290017523268154 0 0  2.313275249499252 0 0  2.336748971745516 0 0  2.360440702338606 0 0  2.384352453384031 0 0  2.408486280477412 0 0  2.432844240041185 0 0  2.457428414757088 0 0  2.482240901796653 0 0  2.507283830121838 0 0  2.532559332080812 0 0  2.558069568787417 0 0  2.583816724966441 0 0  2.60980299606584 0 0  2.636030600971886 0 0  2.662501790984011 0 0  2.689218818279327 0 0  2.716183964547616 0 0  2.743399548861297 0 0  2.77086788244719 0 0  2.798591312896326 0 0  2.826572223178268 0 0  2.854812990138617 0 0  2.883316031690714 0 0  2.912083780657189 0 0  2.941118704633482 0 0  2.970423276998917 0 0  3 0.02999999999994495 0  3 0.05999999999987042 0  3 0.089999999999783 0  3 0.119999999999701 0  3 0.149999999999619 0  3 0.179999999999692 0  3 0.2099999999997737 0  3 0.2399999999998511 0  3 0.2699999999999185 0  2.970138294777171 0.3 0  2.940375666438236 0.3 0  2.910711782853056 0.3 0  2.881146331305122 0.3 0  2.851678975030285 0.3 0  2.822309388626621 0.3 0  2.793037250095074 0.3 0  2.76386223529133 0.3 0  2.734784017903872 0.3 0  2.705802289276642 0.3 0  2.676916713794697 0.3 0  2.648126987654635 0.3 0  2.619432780406184 0.3 0  2.590833779385199 0.3 0  2.562329669847737 0.3 0  2.533920134950189 0.3 0  2.505604855727852 0.3 0  2.477383539822502 0.3 0  2.449255847639465 0.3 0  2.421221492569094 0.3 0  2.393280152486815 0.3 0  2.36543151914496 0.3 0  2.337675285481809 0.3 0  2.310011142385583 0.3 0  2.282438797441587 0.3 0  2.254957931061538 0.3 0  2.227568248063605 0.3 0  2.200269436651085 0.3 0  2.173061204949961 0.3 0  2.145943251515011 0.3 0  2.118915272469994 0.3 0  2.091976978084957 0.3 0  2.065128060700849 0.3 0  2.038368218849433 0.3 0  2.01169717777258 0.3 0  1.985114624111908 0.3 0  1.958620267850966 0.3 0  1.93221382054972 0.3 0  1.905894991850698 0.3 0  1.879663489459713 0.3 0  1.853519019126419 0.3 0  1.827461291053897 0.3 0  1.801490031354372 0.3 0  1.775604937580312 0.3 0  1.74980572560258 0.3 0  1.724092118631866 0.3 0  1.698463829173586 0.3 0  1.672920575782554 0.3 0  1.647462076974085 0.3 0  1.622088043536933 0.3 0  1.5967981978949 0.3 0  1.571592267767068 0.3 0  1.546469970305736 0.3 0  1.521431023814044 0.3 0  1.496475156230927 0.3 0  1.471602093687753 0.3 0  1.446811560490646 0.3 0  1.422103279101731 0.3 0  1.397476971708191 0.3 0  1.37293238939876 0.3 0  1.348469231419202 0.3 0  1.324087248732772 0.3 0  1.299786165921677 0.3 0  1.275565710847046 0.3 0  1.251425617644257 0.3 0  1.227365618676339 0.3 0  1.203385446174014 0.3 0  1.179484853067473 0.3 0  1.155663548773374 0.3 0  1.131921292279077 0.3 0  1.108257802159295 0.3 0  1.084672829009693 0.3 0  1.061166115303374 0.3 0  1.037737392995421 0.3 0  1.01438640299116 0.3 0  0.991112899770314 0.3 0  0.9679166155523955 0.3 0  0.944797284182564 0.3 0  0.921754678526042 0.3 0  0.8987885143602501 0.3 0  0.8758985548820624 0.3 0  0.8530845484099929 0.3 0  0.8303462351786988 0.3 0  0.8076833651172373 0.3 0  0.7850956864865304 0.3 0  0.7625829601354557 0.3 0  0.7401449314598274 0.3 0  0.717781337993959 0.3 0  0.6954919649675473 0.3 0  0.6732765357561226 0.3 0  0.6511348120768439 0.3 0  0.6290665642016573 0.3 0  0.6070715355430467 0.3 0  0.5851494825775325 0.3 0  0.5633001690203812 0.3 0  0.5415233562273221 0.3 0  0.5198187909431873 0.3 0  0.4981862401387795 0.3 0  0.4766254686134248 0.3 0  0.4551362360485234 0.3 0  0.4337182975262159 0.3 0  0.4123714223228037 0.3 0  0.3910953802377493 0.3 0  0.3698899313205595 0.3 0  0.3487548463710963 0.3 0  0.3276898864081783 0.3 0  0.3066948129116018 0.3 0  0.2857694003037476 0.3 0  0.2649134227095047 0.3 0  0.2441266417321288 0.3 0  0.2234088223399122 0.3 0  0.2027597568977288 0.3 0  0.1821792020676698 0.3 0  0.1616669305402443 0.3 0  0.1412227158799362 0.3 0  0.12084633013886 0.3 0  0.1005375673448281 0.3 0  0.08029618164595353 0.3 0  0.06012194778526769 0.3 0  0.04001466495039718 0.3 0  0.01997408913631205 0.3 0  0 0.2800000000000553 0  0 0.2600000000001105 0  0 0.2400000000001658 0  0 0.2200000000002211 0  0 0.2000000000002764 0  0 0.1800000000002244 0  0 0.1600000000001691 0  0 0.140000000000115 0  0 0.1200000000000564 0  1.133778471000506 0.01219539743990768 0  1.003741919047894 0.09354664821474232 0  0.9559421147150347 0.1035858189992458 0  0.9313792160389045 0.1037365237938103 0  0.9788461538460573 0.1033060829993555 0  0.9090102438250753 0.1037269304984056 0  0.8846304212778655 0.1043349840723655 0  0.8581503885465881 0.104741932962923 0  0.8286416220145676 0.1052762843984476 0  0.7982741772533339 0.1053575624517407 0  0.7708789559342691 0.1060290465840416 0  0.741870349714261 0.1078220590984258 0  0.7112469360040695 0.10685702926368 0  0.6783901541417233 0.1079959711853378 0  0.642884733623195 0.1075561996086514 0  0.6056235042367955 0.1085956039602543 0  0.5647007593786924 0.1083187281660325 0  1.1953125 0.01353164693413185 0  1.258148737344733 0.01268350115427042 0  1.320087046516829 0.01426312402966312 0  1.383495130751951 0.01432665475473204 0  1.4453125 0.01315663539200989 0  1.50886768312388 0.01395488397722681 0  0.9942307692307371 0.103330866937657 0  1.119309781943483 0.2802014914557878 0  1.572831235329714 0.01707210522554785 0  1.637611634353954 0.01209340368483431 0  1.709661292005932 0.0146870244871893 0  1.006561890631532 0.07068055446055937 0  1.784793444007901 0.01499371444634687 0  1.855459587353174 0.0
[...]
<PointData  Scalars="pressure"> 
<DataArray  type="Float64"  Name="pressure"  format="ascii">2.6489365927853059e-01  -6.5511213305157787e-02  -6.2571748758414467e-02  9.1598272039734845e-03  8.9276448578881631e-02  0.0000000000000000e+00  0.0000000000000000e+00  2.6491981192242370e-01  2.5897094933171361e-01  2.5314642985383645e-01  2.4741838568762103e-01  2.4178517118558024e-01  2.3624511583144225e-01  2.3079667455108940e-01  2.2543823766506038e-01  2.2016821847354817e-01  2.1498516846390792e-01  2.0988740986540919e-01  2.0487347857913643e-01  1.9994195422186989e-01  1.9509124984237888e-01  1.9031996373131166e-01  1.8562654582173826e-01  1.8100961357011969e-01  1.7646759915920524e-01  1.7199919174450429e-01  1.6760281417863143e-01  1.6327717700625777e-01  1.5902059084838571e-01  1.5483182355396743e-01  1.5070975023697422e-01  1.4665226690971594e-01  1.4265833918257631e-01  1.3872637474981553e-01  1.3485519271078653e-01  1.3104299515610865e-01  1.2728865889767932e-01  1.2359042044380916e-01  1.1994717902799316e-01  1.1635756172540168e-01  1.1281945191565808e-01  1.0933180904132599e-01  1.0589332038097669e-01  1.0250235837214344e-01  9.9157226678390151e-02  9.5856823697115456e-02  9.2599351444190001e-02  8.9383600704588978e-02  8.6207701584089885e-02  8.3070341789445598e-02  7.9970141973893294e-02  7.6905543819319203e-02  7.3874789091330578e-02  7.0876804216320075e-02  6.7909595135197898e-02  6.4971999082307150e-02  6.2062486246977445e-02  5.9178690023666790e-02  5.6320964255740784e-02  5.3485286859600460e-02  5.0672005950974500e-02  4.7879805309145401e-02  4.5106155526416870e-02  4.2349581972478151e-02  3.9609365131124598e-02  3.6881360603223459e-02  3.4168897394365232e-02  3.1467415397276821e-02  2.8774553736422546e-02  2.6090863393604318e-02  2.3412288641534981e-02  2.0741487150541318e-02  1.8074060409224980e-02  1.5407708783379674e-02  1.2742466034277505e-02  1.0076199163535610e-02  7.4076026602112165e-03  4.7343344627162843e-03  2.0557625435458182e-03  -6.3066640814632782e-04  -3.3248015852376960e-03  -6.0298815688015475e-03  -8.7491228777937958e-03  -1.1482339176067276e-02  -1.4231751653846460e-02  -1.7001217152277995e-02  -1.9790152303333537e-02  -2.2602528461459888e-02  -2.5441100361199773e-02  -2.8311643711496692e-02  -3.1212379530430788e-02  -3.4149193004492866e-02  -3.7124949776095574e-02  -4.0153391449387212e-02  -4.3220843660377449e-02  -4.6276729715828892e-02  -5.0205174448573919e-02  -4.9044006426668993e-02  -7.3913473070696470e-02  -3.6537877692556509e-02  -6.7109215328322896e-02  -6.5021030046237105e-02  -7.1144776096440709e-02  -7.5731753975927366e-02  -8.8556551105489850e-02  -9.1654856885883484e-02  -9.0788252657216822e-02  -8.6152929539765347e-02  -7.8994915167698257e-02  -7.0158474829459833e-02  -6.0564059344470456e-02  -5.0938456288544161e-02  -4.1845011789272753e-02  -3.5893459794258051e-02  -1.8456418225000083e-02  -5.0633774558973485e-02  -2.4734084775551262e-02  -1.5471406367927177e-02  -8.5305153673933612e-03  -3.5982973955649084e-03  3.9449124667524725e-04  3.7443459257191052e-03  6.4431223977892181e-03  8.4465383226054892e-03  9.6004187074744413e-03  9.6252635227104723e-03  8.5772422047414310e-03  8.8165133349936749e-03  1.0388342116656204e-02  1.3146934724747927e-02  1.6998469639826364e-02  2.1774630124330108e-02  2.7309311107972880e-02  3.3471150603716013e-02  3.9941094339926153e-02  4.6418514168864465e-02  5.2655775902884908e-02  5.8403270269064778e-02  6.3438953980366086e-02  6.7591183933985458e-02  7.0724743337556323e-02  7.2799852879993771e-02  7.3806507091580362e-02  7.3761306852723363e-02  7.2791563152823313e-02  7.1064343007873343e-02  6.8677433817046607e-02  6.6149249101298435e-02  6.3542899895574989e-02  6.1352360194337922e-02  5.9766874983275382e-02  5.9491626495237669e-02  6.0385956399771228e-02  6.2945701581799754e-02  6.7166746325112256e-02  7.3073576577164331e-02  8.0532545784015946e-02  9.9162057960159380e-02  1.0967158208189244e-01  1.2037736114451481e-01  1.3070472721593090e-01  1.4038008530011786e-01  1.4881379298380604e-01  1.5588755382659716e-01  1.6125087725543133e-01  1.6482361043273852e-01  1.6666582083338999e-01  1.6685488925970882e-01  1.6551178695745958e-01  1.6277283018459532e-01  1.5884158372633814e-01  1.5387551608189659e-01  1.4805479068129629e-01  1.4156003149821300e-01  1.3458951695649593e-01  1.2720824180747611e-01  1.1995214213920165e-01  1.1287237420370995e-01  1.0644731743479990e-01  1.0109998850488519e-01  9.7111735678668640e-02  9.4878084861235779e-02  9.4398704728838420e-02  9.5694856917762083e-02  9.8616247729521850e-02  1.0268397882536226e-01  1.0736761049867911e-01  1.1213946302035019e-01  1.1638785424798222e-01  1.1963874676663727e-01  1.2156173599936788e-01  1.2197757926818013e-01  1.2084948870615267e-01  1.1825570371908482e-01  1.1437283069393110e-01  1.0937944415865214e-01  1.0350187047589242e-01  9.6924829115792116e-02  8.9816394012963402e-02  8.2324294441710757e-02  7.4654762796429408e-02  6.7078564628592047e-02  6.0001286589414511e-02  5.3879423960029073e-02  4.9205959208807951e-02  4.6370328287088911e-02  4.5663763598660582e-02  4.6922749366651112e-02  4.9659106312240901e-02  5.3537694748477326e-02  5.7458459279294286e-02  6.0817936348520334e-02  6.3090415432441371e-02  6.3588621802219553e-02  6.2261284380146713e-02  5.9147323439889064e-02  5.4407459404602565e-02  4.8309671467938312e-02  4.1088844379509097e-02  3.3232428327148365e-02  2.5045931000627825e-02  1.7054593825379469e-02  9.7685270709131997e-03  3.7215392810445534e-03  0.0000000000000000e+00  0.0000000000000000e+00  0.0000000000000000e+00  0.0000000000000000e+00  0.0000000000000000e+00  0.0000000000000000e+00  0.0000000000000000e+00  0.0000000000000000e+00  0.0000000000000000e+00  6.2074646452533900e-03  9.2922764458540901e-03  1.0171028384154731e-02  9.5552243245470847e-03  8.3606010622253452e-03  7.7477461545195124e-03  8.7040866825484984e-03  1.1922979759090990e-02  1.7651339959904217e-02  2.5648623602218739e-02  3.5305475158523468e-02  4.5829388658580245e-02  5.6461511274851134e-02  6.6634591485307051e-02  7.5929337037623418e-02  8.4037451258616058e-02  9.0661264183784507e-02  9.5392639670503820e-02  9.7858138407606099e-02  9.7742691416807817e-02  9.4964170209692930e-02  8.9804046424317455e-02  8.2991732986413033e-02  7.5637988612410417e-02  6.9049810651766422e-02  6.4554996807590831e-02  6.3192436346269573e-02  6.5404326949534630e-02  7.1066142463920082e-02  7.9473149086530900e-02  8.9583204768291125e-02  1.0027567459683603e-01  1.1082426319341275e-01  1.2025850250990006e-01  1.2805939110488609e-01  1.3437667584327850e-01  1.3841994788168333e-01  1.4019804602812758e-01  1.3929429079727190e-01  1.3562505799145377e-01  1.2930247471639558e-01  1.2041896299238693e-01  1.0992706154194029e-01  9.8758728504481030e-02  8.8148431513687370e-02  7.9298245780319201e-02  7.3098145506524520e-02  7.0040582126099343e-02  6.9980997736272949e-02  7.2265139784108909e-02  7.6148522947558639e-02  8.0558181539581428e-02  8.4997461044452285e-02  8.8572035380375780e-02  9.1031540693104457e-02  9.2268899841144433e-02  9.2271057496409792e-02  9.1048255151582519e-02  8.8662424554707533e-02  8.5179864754829054e-02  8.0703930985871516e-02  7.5378476810304809e-02  6.9445653892767106e-02  6.3104452028061600e-02  5.6628131624169048e-02  5.0271992644040149e-02  4.4212741983952135e-02  3.8620399605045604e-02  3.3606039982072594e-02  2.9204553726866929e-02  2.5476225885996694e-02  2.2383949863698183e-02  1.9862918606783339e-02  1.7945082031145438e-02  1.6694129682179672e-02  1.6024805156012907e-02  1.6033582528530054e-02  1.6775547567695955e-02  1.7989839980446558e-02  2.0079207589854403e-02  2.2801508320559303e-02  2.6127034254614153e-02  2.9937492788269331e-02  3.4200816470674890e-02  3.8892637873348325e-02  4.3935138162182696e-02  4.9238600860386492e-02  5.4766189919416806e-02  6.0509034279980264e-02  6.6383854617468305e-02  7.2389568833245377e-02  7.8483977484333958e-02  8.4651622021400211e-02  9.0880191008351152e-02  9.7153977934443705e-02  1.0345514383777195e-01  1.0977843736801363e-01  1.1611694640448274e-01  1.2246244347699585e-01  1.2880786009722703e-01  1.3514975836515805e-01  1.4148784082924859e-01  1.4781610285254690e-01  1.5413366768391867e-01  1.6043785537347796e-01  1.6672814487573007e-01  1.7300330301587313e-01  1.7926109591930584e-01  1.8550268058386196e-01  1.9172567199299326e-01  1.9793084142885797e-01  2.0411736611124412e-01  2.1028474262189931e-01  2.1643324772391809e-01  2.2256237399155296e-01  2.2867210011794742e-01  2.3476234115906119e-01  2.4083303703586056e-01  2.4688416494881504e-01  2.5291569337938263e-01  2.5892758484081368e-01  2.6491974006652502e-01  2.6491866722178598e-01  2.6491598379243458e-01  2.6491181519922841e-01  2.6490674150288879e-01  2.6490167582809260e-01  2.6489749182715888e-01  2.6489482886988713e-01  2.6489375150031319e-01  3.6963853046882801e-02  -2.8679349121434661e-02  -8.6595563714557858e-02  -5.6345209033094999e-02  -6.5069567577430307e-02  -4.2027751114801885e-02  -2.7126938399477277e-02  -1.3049341277446712e-02  8.7905410900186861e-04  1.3867343376770798e-02  2.4715440887564829e-02  3.5537114956476087e-02  4.6436366171562292e-02  5.7644304412401239e-02  6.9364030854974848e-02  8.1335826402710504e-02  9.4220040023792306e-02  6.0717079815020912e-02  7.3449515154321438e-02  7.0415306238207825e-02  6.0857097630516228e-02  6.4617079379841499e-02  9.3644809507653720e-02  -3.3340636943783801e-02  2.7788871455540678e-02  1.3422771154985363e-01  1.6185101096654850e-01  1.6409702933533152e-01  -2.3073886739385634e-03  1.4433593336687056e-01  1.1762549365672696e-01  1.0749452556730849e-01  9.5691052639066201e-02  4.7525482519440013e-02  7.2899771864907884e-02  1.0068581510697920e-01  9.0467328775881900e-02  1.2197387257897196e-01  8.7976291029033871e-02  1.1746847353255058e-01  1.3612099926898666e-01  1.9698734619574856e-02  1.1979038091814757e-01  6.9502580404111072e-02  1.9715908048463206e-02  1.5230653217644216e-01  1.0069292658596309e-01  1.1451757994809578e-01  1.7009611181192980e-01  1.3734457961749227e-01  7.1329482316255119e-02  1.3652895898172612e-01  1.7041243797159565e-02  4.7170008049569195e-02  1.8797232348213827e-01  1.1593749809955960e-01  2.1843898646477317e-02  3.2659710108948255e-02  8.4720517227790185e-02  5.0629458971599532e-02  2.0787764507719717e-01  2.2268532275655076e-01  8.2554368350039334e-02  6.1734473972276355e-02  6.0762825868278025e-02  5.1799688572942391e-02  6.3426001211894456e-02  7.8660289341851028e-02  6.9651225383251567e-02  -6.8484816785047184e-02  -8.8632244268196811e-02  8.7615407898078798e-02  9.6251600025916900e-02  4.5600216835433735e-02  1.1209274031169091e-01  8.7897770245725051e-02  1.4448012292205217e-01  6.2288395904074798e-02  1.7613342115558217e-01  3.0752479007293658e-02  1.9472722737905762e-01  2.3158681077657400e-01  2.1350447457297222e-01  9.4755805927007053e-03  2.5986240568498059e-01  4.3640322373320580e-03  2.3920467409718171e-01  6.8521975657201218e-03  8.0297218336445701e-03  2.1033725068826416e-02  -1.1172553260769708e-02  1.2034429976795671e-02  1.7236471358845505e-02  3.6367504496237039e-02  4.1383720978271095e-02  1.0035927849847953e-01  1.2533559376495576e-01  1.5802422811804878e-01  7.9023945496061829e-02  9.2919014593160376e-02  8.3866619531340073e-02  6.0172476255384910e-02  1.9751591609552357e-01  1.7881867019085446e-01  6.5435212146201488e-02  9.6975956933263413e-02  1.6161253955831931e-01  4.5341248390382907e-02  2.4376200374151594e-01  5.6764288821243021e-02  8.6586180727398890e-02  1.4434586642521627e-01  1.1226842723295961e-01  2.5983663065498108e-01  1.2169585552816542e-01  1.2926096767278147e-01  1.0850712256144372e-01  9.4569893851965944e-02  1.1383102072224197e-01  1.0447128934716225e-01  1.1444501585092094e-01  1.3137642556554585e-01  1.5650394671689299e-01  1.6641880064533912e-01  1.0070381395019025e-01  1.5176073822178535e-01  1.6417013909854931e-03  8.7779485009508898e-02  7.5324934888494247e-02  6.3232353586218079e-02  5.2353934044299250e-02  4.0733849795038635e-02  3.0028302912757762e-02  1.9039530784816776e-02  5.9448808091172528e-03  4.9684209539239986e-02  -7.5533226833078455e-03  -2.1507956945822474e-02  -3.5946383691678303e-02  6.9080230486007047e-02  -5.1800632209274708e-02  6.5370683448169237e-02  7.3475073979057240e-02  5.9785927272884634e-02  7.5982424833637305e-02  2.6025089605731733e-01  -4.6156374814296013e-02  6.2656828875178056e-03  2.5024370098942172e-01  9.5364194472132343e-03  9.2302443802260072e-03  2.3550586366514713e-03  2.6039616505171326e-01  1.0131311600943889e-02  1.0668553576765790e-02  1.2580697380130320e-02  1.0427571005305907e-02  1.2391501149360046e-02  9.6753092312412900e-03  1.2034819993192680e-02  8.7815800834772258e-03  1.1558198787384438e-02  8.1313431189745430e-03  1.1535792610934769e-02  8.2003397133762115e-03  1.2472201003565678e-02  9.4556552165496726e-03  1.4583818777663654e-02  1.1898726954923500e-02  1.7988659898412029e-02  1.5283646354875932e-02  2.2004854604778815e-02  1.9225121871616464e-02  2.6310590004417048e-02  1.2265286356178629e-02  2.9790405645294282e-02  3.3970096386101392e-02  1.6288249192565080e-02  9.1437826597147477e-03  3.8366942947176880e-02  4.2090133976850512e-02  4.6320808704220257e-02  4.9812802126473724e-02  5.4628952576663455e-02  5.6972181881908932e-02  6.2107136852544154e-02  6.3150770367034120e-02  6.8676569274776736e-02  6.7782156119477410e-02  7.3731930201046042e-02  7.2614180106072304e-02  7.7388106883961902e-02  7.5304241635120187e-02  7.9270263233458774e-02  7.6089098766431232e-02  7.9375874307203081e-02  7.6505209106876262e-02  7.8006449021746638e-02  7.5397867022466661e-02  7.5357681971730719e-02  7.3668043474945738e-02  7.1907761502344889e-02  7.1610903005422444e-02  6.8358534812453492e-02  1.3559473020456477e-02  7.0213478001656567e-03  6.9764199006611266e-02  6.4560164797728761e-02  6.8387013636253352e-02  6.2722195343656167e-02  6.8297794483281216e-02  6.2179833719319656e-02  6.9340099205665071e-02  6.3367021375757185e-02  7.1755904277724145e-02  6.6548072812576936e-02  3.7163999757796135e-02  7.5255591434916655e-02  7.1486851827847045e-02  7.9569404318625414e-02  7.7687374804662424e-02  8.4177958912894993e-02  8.4535767668563105e-02  1.1299226034659507e-02  5.0320753458820491e-03  5.1792488427452703e-03  8.8449625397299336e-02  9.1363168347286403e-02  2.4987254528556278e-03  9.1998684911275289e-02  9.7527784652822372e-02  9.4442171133275910e-02  1.0249995280516661e-01  9.5734068820118132e-02  1.0607620516270863e-01  5.6771909889060071e-02  9.5327870247877824e-02  1.0815668872537022e-01  9.5012072768510925e-02  1.0934576279142454e-01  9.4198136888340486e-02  1.0982630890230541e-01  1.7900711954897033e-02  7.0432536550450231e-02  9.3928581378430256e-02  1.0994916921521493e-01  9.7959204349271269e-03  2.7030610631840002e-03  1.5593877056058792e-02  7.4159799092208017e-02  9.3035122561722500e-02  1.1053691291484523e-01  9.4527607866120536e-02  1.1153528136299171e-01  9.7452633556530319e-02  1.1288094064039984e-01  8.8222062107778831e-02  1.2831224785303280e-01  1.1399511072091219e-01  6.3588612452847568e-02  1.0189327621677015e-01  1.1473190663348848e-01  1.2618464727439876e-01  1.2513099589380131e-01  1.1706545695093398e-01  1.2389799857547386e-01  1.1939644706935135e-01  1.2244023248955634e-01  1.2138581870058619e-01  1.2067408612458148e-01  1.2290509567917225e-01  1.1891733970973530e-01  1.2386245948087973e-01  1.1712636724142912e-01  1.2452212664252837e-01  1.1574391366169061e-01  1.2445289595575412e-01  1.1415856147319806e-01  1.2396106054986615e-01  1.1349144904016722e-01  1.2295199338820637e-01  1.1298268400792218e-01  1.2158938490791141e-01  1.1251105129485436e-01  5.8031663520426963e-02  7.3562083034583614e-02  1.1893599154218341e-01  1.1152172400227647e-01  1.1498676849206871e-01  1.0958001602396301e-01  5.8745575058268579e-02  1.0977452803687403e-01  1.0655617290352774e-01  7.8081767973107369e-02  8.0515238108918447e-02  9.2260928285779094e-03  4.8394720562384887e-03  -3.5659784761917458e-03  -2.4070483143543752e-03  -1.0410457944493141e-02  -8.7488807891163613e-03  -1.7201393659155569e-02  -1.4398850453853723e-02  -2.3696217612871141e-02  -1.9419097068462454e-02  -2.9209554235832338e-02  -2.3144827138430801e-02  -3.3392123501359013e-02  -2.5999957101627388e-02  -3.7071676000225817e-02  -2.8386000521602096e-02  -3.6286365848238203e-02  -2.7058107911934390e-02  -3.5164999786455028e-02  -2.7234914797484130e-02  -3.3003780718910351e-02  -2.5196353615338816e-02  -2.9871401916155744e-02  -2.2421555418844951e-02  -2.6131910658161367e-02  -1.9181503406444950e-02  -2.2051267028398745e-02  -1.5532064953388212e-02  -1.9130265419332680e-02  -1.2166425660410719e-02  -8.9208619900189943e-03  -1.1652816645981614e-02  -5.5170934922673899e-03  -7.6580059323940949e-03  -1.9522602340001410e-03  -3.7444315019618387e-03  1.6787308173938518e-03  3.9608251101810562e-04  -4.1233052683489079e-04  5.3385371957678004e-03  4.4772623652904126e-03  9.3157242277518842e-03  1.0573890043749088e-02  1.4199414263655352e-02  1.3282358528063528e-02  1.7866448142009297e-02  1.7400758776014612e-02  2.1628849320089138e-02  -1.7690370485400630e-02  2.1491450124565020e-02  2.5468408098050680e-02  2.6057572723515453e-02  2.9680974576783870e-02  2.9288616029134223e-02  3.3355937749024178e-02  3.3135235207005648e-02  3.7067262389496439e-02  -4.3353712929254586e-02  -2.0277369204066097e-02  -3.3180724367552199e-02  -4.2994964424108537e-02  3.7008292941686075e-02  4.0843396978056341e-02  4.1025571407915608e-02  4.4740641550190009e-02  4.4680113654087653e-02  4.8488084322618204e-02  4.8587844304096767e-02  5.2310169069673410e-02  5.2280808485461620e-02  5.6019740625716442e-02  5.6233665431088341e-02  5.9845896902162465e-02  1.5601813584835479e-02  6.0203740091193815e-02  6.3688778573709193e-02  -3.7480359237351442e-02  -9.7773947938133380e-03  3.0368981729241473e-02  -2.8390294571954133e-02  6.4131577998906869e-02  6.7663115380297095e-02  6.6996062364874348e-02  7.1180192729866518e-02  7.1579649400659653e-02  7.5221426302823524e-02  7.4829804826473237e-02  7.8844837355053252e-02  7.9280848588794001e-02  8.2872190762543124e-02  -9.0456443900058855e-03  8.3344971998848785e-02  8.6982421913837885e-02  5.6212174235487196e-02  1.3955631951797463e-02  7.5930764929984393e-02  6.9391311049040583e-05  8.6496267722005471e-02  9.0607991079413683e-02  9.1116498974134236e-02  9.4727435456962536e-02  1.0335566406926186e-01  1.0224745900272722e-01  9.5910036889751055e-02  9.6971503003474263e-02  8.7989462641429469e-02  9.1140101883522256e-02  9.5422616669538080e-02  9.8972674588216930e-02  8.8532639665270349e-02  9.8391068211353461e-02  1.0259877430030596e-01  1.0307268679030494e-01  1.0678829409564623e-01  6.6757758903864201e-03  4.0598075650130263e-03  2.9233577604386541e-02  1.1247972097386914e-01  8.0287024979164318e-02  8.5535660670759392e-02  1.3552040663352041e-01  1.0487726529548780e-01  9.8445266305073553e-02  9.4402496860702914e-02  8.0683334874070811e-02  9.0610692772471829e-02  7.7265367055608616e-02  8.7391647479150764e-02  7.5299090669468619e-02  8.4739533755875465e-02  7.4925485632504368e-02  8.2715876662812812e-02  7.5646833030725280e-02  8.0943654088438108e-02  7.7082787398489297e-02  7.9298038105806073e-02  7.8733709463747706e-02  7.7425760184843706e-02  7.9986699610144374e-02  7.5244832557863156e-02  8.0387937935900752e-02  7.2663219475528382e-02  8.0097329856793270e-02  7.0104903137547803e-02  7.9148648538316921e-02  6.7600198316500659e-02  1.0729028277738216e-01  1.1101487930393318e-01  1.1077054804180923e-01  1.1485832365700308e-01  1.1531839868701470e-01  1.1910698149486566e-01  7.7486460418516395e-02  6.5537893988178941e-02  7.4498003686707406e-02  6.3664547848952327e-02  7.2943067529864389e-02  6.2276309454661324e-02  1.0693721903533733e-01  1.1832609001837265e-01  1.2295908521552702e-01  1.2361861984835973e-01  1.2748368441802191e-01  4.5079040161848771e-02  4.8869512678520778e-02  1.2697360117977899e-01  1.3143484224605734e-01  1.3