<?xml version="1.0"?>
<VTKFile type="UnstructuredGrid"  version="0.1"  >
<UnstructuredGrid>
<Piece  NumberOfPoints="2945" NumberOfCells="5525">
<Points>
<DataArray  type="Float64"  NumberOfComponents="3"  format="ascii">0 0.1 0  0.95 0.1 0  1 0.1 0  1 0 0  1.5 0 0  3 0 0  3 0.3 0  0 0.3 0  0.0197424558707114 0.1 0  0.03915669042224804 0.1 0  0.05824816022699029 0.1 0  0.07702223050332387 0.1 0  0.09548417327144595 0.1 0  0.1136391897583987 0.1 0  0.1314923700144587 0.1 0  0.1490487330862866 0.1 0  0.1663132263225292 0.1 0  0.1832906857273058 0.1 0  0.1999858946008978 0.1 0  0.216403545770297 0.1 0  0.2325482404045023 0.1 0  0.2484245348165176 0.1 0  0.2640368740372501 0.1 0  0.2793896589642241 0.1 0  0.2944872056237027 0.1 0  0.3093337469555254 0.1 0  0.3239334613687816 0.1 0  0.3382904528528069 0.1 0  0.3524087553122972 0.1 0  0.3662923366391824 0.1 0  0.3799451014768399 0.1 0  0.393370886920506 0.1 0  0.4065734648871676 0.1 0  0.419556546320114 0.1 0  0.4323237821343415 0.1 0  0.4448787573056132 0.1 0  0.4572250047274954 0.1 0  0.4693659926332938 0.1 0  0.4813051343276231 0.1 0  0.4930457849308193 0.1 0  0.5045912455271677 0.1 0  0.5159447600209797 0.1 0  0.5271095174127136 0.1 0  0.5380886618453393 0.1 0  0.5488852725463512 0.1 0  0.5595023868312478 0.1 0  0.5699429904313016 0.1 0  0.5802100167387366 0.1 0  0.5903063508274641 0.1 0  0.6002348329443006 0.1 0  0.6099982499579832 0.1 0  0.6195993483501782 0.1 0  0.6290408246013842 0.1 0  0.6383253354321616 0.1 0  0.6474554910757137 0.1 0  0.6564338522440513 0.1 0  0.6652629482939147 0.1 0  0.6739452579188948 0.1 0  0.6824832240165607 0.1 0  0.6908792415022103 0.1 0  0.6991356755989045 0.1 0  0.7072548438546967 0.1 0  0.7152390281534421 0.1 0  0.7230904746196039 0.1 0  0.7308113906759266 0.1 0  0.7384039435269326 0.1 0  0.7458702676581656 0.1 0  0.7532124631720397 0.1 0  0.7604325921167397 0.1 0  0.7675326856666862 0.1 0  0.7745147374421916 0.1 0  0.7813807123989068 0.1 0  0.7881325374362798 0.1 0  0.7947721131625659 0.1 0  0.8013013031866276 0.1 0  0.8077219449067021 0.1 0  0.8140358419942376 0.1 0  0.8202447685401882 0.1 0  0.8263504700910924 0.1 0  0.8323546643163114 0.1 0  0.8382590362474568 0.1 0  0.8440652473522128 0.1 0  0.8497749272799842 0.1 0  0.8553896837646281 0.1 0  0.8609110933285474 0.1 0  0.866340708855119 0.1 0  0.8716800550492284 0.1 0  0.8769306339052932 0.1 0  0.8820939206038667 0.1 0  0.8871713655604893 0.1 0  0.8921643975475726 0.1 0  0.8970744196575535 0.1 0  0.9019028106970642 0.1 0  0.9066509291259979 0.1 0  0.9113201098984042 0.1 0  0.9159116634553873 0.1 0  0.9204268818729691 0.1 0  0.9248670319440222 0.1 0  0.9292333656649013 0.1 0  0.9335271075812669 0.1 0  0.9377494640511216 0.1 0  0.941901623463222 0.1 0  0.9459847526686701 0.1 0  0.9538461538461205 0.1 0  0.9576923076922409 0.1 0  0.9615384615384381 0.1 0  0.9653846153846337 0.1 0  0.9692307692307542 0.1 0  0.9730769230768747 0.1 0  0.9769230769229952 0.1 0  0.9807692307691157 0.1 0  0.9846153846152361 0.1 0  0.9884615384614317 0.1 0  0.9923076923076356 0.1 0  0.9961538461538395 0.1 0  1 0.09591793123533533 0  1 0.09133596463859224 0  1 0.08619288104391448 0  1 0.08041996484521211 0  1 0.07394008421771697 0  1 0.06666666567302955 0  1 0.05850252932209174 0  1 0.04933859630113544 0  1 0.03905242821848202 0  1 0.02750659386753798 0  1 0.01454683679239736 0  1.015625 0 0  1.03125 0 0  1.046875 0 0  1.0625 0 0  1.078125 0 0  1.09375 0 0  1.109375 0 0  1.125 0 0  1.140625 0 0  1.15625 0 0  1.171875 0 0  1.1875 0 0  1.203125 0 0  1.21875 0 0  1.234375 0 0  1.25 0 0  1.265625 0 0  1.28125 0 0  1.296875 0 0  1.3125 0 0  1.328125 0 0  1.34375 0 0  1.359375 0 0  1.375 0 0  1.390625 0 0  1.40625 0 0  1.421875 0 0  1.4375 0 0  1.453125 0 0  1.46875 0 0  1.484375 0 0  1.515920751924515 0 0  1.531989369316721 0 0  1.54820720925872 0 0  1.564575665560501 0 0  1.581096138674279 0 0  1.597770029901263 0 0  1.614598783332311 0 0  1.631583831055205 0 0  1.64872661129721 0 0  1.666028606716533 0 0  1.683491276608443 0 0  1.701116134125304 0 0  1.718904673324128 0 0  1.736858414799339 0 0  1.754978895814663 0 0  1.773267661782904 0 0  1.791726281103402 0 0  1.810356325314689 0 0  1.8291593848892 0 0  1.848137076690385 0 0  1.867291007717254 0 0  1.886622833871288 0 0  1.90613418642363 0 0  1.925826753299799 0 0  1.945702199101513 0 0  1.96576223584749 0 0  1.986008569283268 0 0  2.006442931928877 0 0  2.02706707547783 0 0  2.047882750887917 0 0  2.06889175187935 0 0  2.090095860038271 0 0  2.111496891648636 0 0  2.133096679109554 0 0  2.154897066851056 0 0  2.176899916687499 0 0  2.199107102752146 0 0  2.22152053937028 0 0  2.244142122958061 0 0  2.266973806444078 0 0  2.290017523268154 0 0  2.313275249499252 0 0  2.336748971745516 0 0  2.360440702338606 0 0  2.384352453384031 0 0  2.408486280477412 0 0  2.432844240041185 0 0  2.457428414757088 0 0  2.482240901796653 0 0  2.507283830121838 0 0  2.532559332080812 0 0  2.558069568787417 0 0  2.583816724966441 0 0  2.60980299606584 0 0  2.636030600971886 0 0  2.662501790984011 0 0  2.689218818279327 0 0  2.716183964547616 0 0  2.743399548861297 0 0  2.77086788244719 0 0  2.798591312896326 0 0  2.826572223178268 0 0  2.854812990138617 0 0  2.883316031690714 0 0  2.912083780657189 0 0  2.941118704633482 0 0  2.970423276998917 0 0  3 0.02999999999994495 0  3 0.05999999999987042 0  3 0.089999999999783 0  3 0.119999999999701 0  3 0.149999999999619 0  3 0.179999999999692 0  3 0.2099999999997737 0  3 0.2399999999998511 0  3 0.2699999999999185 0  2.970138294777171 0.3 0  2.940375666438236 0.3 0  2.910711782853056 0.3 0  2.881146331305122 0.3 0  2.851678975030285 0.3 0  2.822309388626621 0.3 0  2.793037250095074 0.3 0  2.76386223529133 0.3 0  2.734784017903872 0.3 0  2.705802289276642 0.3 0  2.676916713794697 0.3 0  2.648126987654635 0.3 0  2.619432780406184 0.3 0  2.590833779385199 0.3 0  2.562329669847737 0.3 0  2.533920134950189 0.3 0  2.505604855727852 0.3 0  2.477383539822502 0.3 0  2.449255847639465 0.3 0  2.421221492569094 0.3 0  2.393280152486815 0.3 0  2.36543151914496 0.3 0  2.337675285481809 0.3 0  2.310011142385583 0.3 0  2.282438797441587 0.3 0  2.254957931061538 0.3 0  2.227568248063605 0.3 0  2.200269436651085 0.3 0  2.173061204949961 0.3 0  2.145943251515011 0.3 0  2.118915272469994 0.3 0  2.091976978084957 0.3 0  2.065128060700849 0.3 0  2.038368218849433 0.3 0  2.01169717777258 0.3 0  1.985114624111908 0.3 0  1.958620267850966 0.3 0  1.93221382054972 0.3 0  1.905894991850698 0.3 0  1.879663489459713 0.3 0  1.853519019126419 0.3 0  1.827461291053897 0.3 0  1.801490031354372 0.3 0  1.775604937580312 0.3 0  1.74980572560258 0.3 0  1.724092118631866 0.3 0  1.698463829173586 0.3 0  1.672920575782554 0.3 0  1.647462076974085 0.3 0  1.622088043536933 0.3 0  1.5967981978949 0.3 0  1.571592267767068 0.3 0  1.546469970305736 0.3 0  1.521431023814044 0.3 0  1.496475156230927 0.3 0  1.471602093687753 0.3 0  1.446811560490646 0.3 0  1.422103279101731 0.3 0  1.397476971708191 0.3 0  1.37293238939876 0.3 0  1.348469231419202 0.3 0  1.324087248732772 0.3 0  1.299786165921677 0.3 0  1.275565710847046 0.3 0  1.251425617644257 0.3 0  1.227365618676339 0.3 0  1.203385446174014 0.3 0  1.179484853067473 0.3 0  1.155663548773374 0.3 0  1.131921292279077 0.3 0  1.108257802159295 0.3 0  1.084672829009693 0.3 0  1.061166115303374 0.3 0  1.037737392995421 0.3 0  1.01438640299116 0.3 0  0.991112899770314 0.3 0  0.9679166155523955 0.3 0  0.944797284182564 0.3 0  0.921754678526042 0.3 0  0.8987885143602501 0.3 0  0.8758985548820624 0.3 0  0.8530845484099929 0.3 0  0.8303462351786988 0.3 0  0.8076833651172373 0.3 0  0.7850956864865304 0.3 0  0.7625829601354557 0.3 0  0.7401449314598274 0.3 0  0.717781337993959 0.3 0  0.6954919649675473 0.3 0  0.6732765357561226 0.3 0  0.6511348120768439 0.3 0  0.6290665642016573 0.3 0  0.6070715355430467 0.3 0  0.5851494825775325 0.3 0  0.5633001690203812 0.3 0  0.5415233562273221 0.3 0  0.5198187909431873 0.3 0  0.4981862401387795 0.3 0  0.4766254686134248 0.3 0  0.4551362360485234 0.3 0  0.4337182975262159 0.3 0  0.4123714223228037 0.3 0  0.3910953802377493 0.3 0  0.3698899313205595 0.3 0  0.3487548463710963 0.3 0  0.3276898864081783 0.3 0  0.3066948129116018 0.3 0  0.2857694003037476 0.3 0  0.2649134227095047 0.3 0  0.2441266417321288 0.3 0  0.2234088223399122 0.3 0  0.2027597568977288 0.3 0  0.1821792020676698 0.3 0  0.1616669305402443 0.3 0  0.1412227158799362 0.3 0  0.12084633013886 0.3 0  0.1005375673448281 0.3 0  0.08029618164595353 0.3 0  0.06012194778526769 0.3 0  0.04001466495039718 0.3 0  0.01997408913631205 0.3 0  0 0.2800000000000553 0  0 0.2600000000001105 0  0 0.2400000000001658 0  0 0.2200000000002211 0  0 0.2000000000002764 0  0 0.1800000000002244 0  0 0.1600000000001691 0  0 0.140000000000115 0  0 0.1200000000000564 0  1.133778471000506 0.01219539743990768 0  1.003741919047894 0.09354664821474232 0  0.9559421147150347 0.1035858189992458 0  0.9313792160389045 0.1037365237938103 0  0.9788461538460573 0.1033060829993555 0  0.9090102438250753 0.1037269304984056 0  0.8846304212778655 0.1043349840723655 0  0.8581503885465881 0.104741932962923 0  0.8286416220145676 0.1052762843984476 0  0.7982741772533339 0.1053575624517407 0  0.7708789559342691 0.1060290465840416 0  0.741870349714261 0.1078220590984258 0  0.7112469360040695 0.10685702926368 0  0.6783901541417233 0.1079959711853378 0  0.642884733623195 0.1075561996086514 0  0.6056235042367955 0.1085956039602543 0  0.5647007593786924 0.1083187281660325 0  1.1953125 0.01353164693413185 0  1.258148737344733 0.01268350115427042 0  1.320087046516829 0.01426312402966312 0  1.383495130751951 0.01432665475473204 0  1.4453125 0.01315663539200989 0  1.50886768312388 0.01395488397722681 0  0.9942307692307371 0.103330866937657 0  1.119309781943483 0.2802014914557878 0  1.572831235329714 0.01707210522554785 0  1.637611634353954 0.01209340368483431 0  1.709661292005932 0.0146870244871893 0  1.006561890631532 0.07068055446055937 0  1.784793444007901 0.01499371444634687 0  1.855459587353174 0.0
[...]
<PointData  Scalars="pressure"> 
<DataArray  type="Float64"  Name="pressure"  format="ascii">-1.4800066635062463e-02  -3.6965277621335269e-01  -2.4322461934486891e-01  -2.0529521513131996e-01  -2.4030707787276714e-02  0.0000000000000000e+00  0.0000000000000000e+00  -1.4778260505024276e-02  -2.0722782102595788e-02  -2.6547265667785033e-02  -3.2275219718739971e-02  -3.7908284068370539e-02  -4.3448114489884941e-02  -4.8896258407881192e-02  -5.4254310127886632e-02  -5.9523847987478347e-02  -6.4706323594280954e-02  -6.9803380846470683e-02  -7.4816489755805599e-02  -7.9747068865952758e-02  -8.4596681884696739e-02  -8.9366735426948798e-02  -9.4058758379328172e-02  -9.8674138549455767e-02  -1.0321442305178512e-01  -1.0768093545085540e-01  -1.1207523627352331e-01  -1.1639862841964399e-01  -1.2065278683345333e-01  -1.2483898199177836e-01  -1.2895833685428368e-01  -1.3301294573642344e-01  -1.3700388504046121e-01  -1.4093279867662281e-01  -1.4480091087545063e-01  -1.4860990104907745e-01  -1.5236130739339418e-01  -1.5605650163174892e-01  -1.5969716559255731e-01  -1.6328423687902724e-01  -1.6682033223811057e-01  -1.7030643651598731e-01  -1.7374411072540749e-01  -1.7713500421765743e-01  -1.8048101413903253e-01  -1.8378351693419898e-01  -1.8704438085483116e-01  -1.9026520841708272e-01  -1.9344803727573393e-01  -1.9659440998936406e-01  -1.9970620486656179e-01  -2.0278508290264985e-01  -2.0583317175848956e-01  -2.0885208705480643e-01  -2.1184419247086073e-01  -2.1481099182118540e-01  -2.1775466135399077e-01  -2.2067740989697174e-01  -2.2358130451976049e-01  -2.2646749045787412e-01  -2.2934051232066183e-01  -2.3219885434421864e-01  -2.3504730042391206e-01  -2.3788762645799463e-01  -2.4072131472838018e-01  -2.4355291994676956e-01  -2.4638302457734981e-01  -2.4921119293428035e-01  -2.5204399588074988e-01  -2.5488332488458765e-01  -2.5773217106850210e-01  -2.6059116167009505e-01  -2.6346028819707273e-01  -2.6634912549637985e-01  -2.6925634133232845e-01  -2.7218591425248395e-01  -2.7514083720146060e-01  -2.7812390538574522e-01  -2.8113809843113119e-01  -2.8418832367082186e-01  -2.8727650414847861e-01  -2.9040591083193368e-01  -2.9358360735777767e-01  -2.9681364649288960e-01  -3.0009817356102292e-01  -3.0344486317464897e-01  -3.0686076994908618e-01  -3.1034926584098899e-01  -3.1391614534718632e-01  -3.1758035000586521e-01  -3.2134095053232803e-01  -3.2521275556414875e-01  -3.2920412442004465e-01  -3.3334740073027858e-01  -3.3763514891119611e-01  -3.4202955300149201e-01  -3.4749299297575115e-01  -3.4773427575881022e-01  -3.7585668782341758e-01  -3.3779337676997329e-01  -3.7269027644903363e-01  -3.7276152819942859e-01  -3.8389457583939418e-01  -3.9796246444409006e-01  -4.2749171759960591e-01  -4.3454094209615035e-01  -4.3107297109799630e-01  -4.1793589638629142e-01  -3.9841625086536392e-01  -3.7447447786054133e-01  -3.4832342953655754e-01  -3.2130756381839826e-01  -2.9476649889881490e-01  -2.7120661912153976e-01  -2.4076295670853454e-01  -2.4467983332485285e-01  -2.2349977459308087e-01  -2.1662372389850895e-01  -2.1170369457978461e-01  -2.0868357828695577e-01  -2.0666448233198656e-01  -2.0530363078664113e-01  -2.0451987767491589e-01  -2.0426549820533199e-01  -2.0449918754030752e-01  -2.0506665733402979e-01  -2.0557254765042535e-01  -2.0621448984771021e-01  -2.0676790109093446e-01  -2.0741410873852514e-01  -2.0834784012175017e-01  -2.0965440706221444e-01  -2.1131428922953679e-01  -2.1333114567760603e-01  -2.1553375674394948e-01  -2.1764873128777437e-01  -2.1937264843410878e-01  -2.2032033203023821e-01  -2.2003119873090832e-01  -2.1805003429428127e-01  -2.1398928086802238e-01  -2.0764790998533028e-01  -1.9888665559963351e-01  -1.8773900649202838e-01  -1.7448783907489671e-01  -1.5954441460025728e-01  -1.4333674216406184e-01  -1.2676961275848378e-01  -1.1014538326617987e-01  -9.4209657528702390e-02  -7.9239397773000111e-02  -6.6007115122350149e-02  -5.4337409279080304e-02  -4.4606118471159854e-02  -3.6767486022859446e-02  -3.0802282453144033e-02  -2.6610532040706156e-02  -2.2901551342050255e-02  -2.3087101458303446e-02  -2.4419435402933752e-02  -2.6703453723987847e-02  -2.9770872579169449e-02  -3.3265381725724671e-02  -3.7063378133449426e-02  -4.0693382961386623e-02  -4.4012071186676716e-02  -4.6630849918002426e-02  -4.8230548634695732e-02  -4.8549641452682951e-02  -4.7402392906067743e-02  -4.4709808577632570e-02  -4.0524216411276015e-02  -3.5014782771691198e-02  -2.8479048442154535e-02  -2.1338900181679936e-02  -1.3868622626880572e-02  -6.7626626617743055e-03  -2.0108552708090780e-04  5.4194980548088233e-03  9.8417406852522506e-03  1.3003153886728689e-02  1.4830238148148040e-02  1.5460820856542495e-02  1.4961877377697530e-02  1.3466928952805155e-02  1.1162069316444059e-02  8.1681006258977860e-03  4.5749896804261302e-03  5.2788198084282093e-04  -3.8445161555535935e-03  -8.3696651395977744e-03  -1.2830593666583654e-02  -1.6843156690809415e-02  -1.9986628686995658e-02  -2.1788882765960534e-02  -2.1849072815738255e-02  -1.9934356280258077e-02  -1.6043155407950919e-02  -1.0447801286040314e-02  -3.6572040805559229e-03  3.6284036911797923e-03  1.0670093344286221e-02  1.6758604863110496e-02  2.1396818900272122e-02  2.4260458774439855e-02  2.5256859343868471e-02  2.4431665174283967e-02  2.2015758408437992e-02  1.8416679782186186e-02  1.3668852158484212e-02  8.3550954169769355e-03  2.5485049167621606e-03  -3.5525202525899242e-03  -9.2359048531821912e-03  -1.4376755071523849e-02  -1.8229194610199326e-02  -2.0399027117139798e-02  -2.0456464462311297e-02  -1.8509577855613590e-02  -1.4835676008994818e-02  -1.0318266198880374e-02  -5.6429017783969056e-03  -1.8447919150418517e-03  5.2173339082873756e-04  0.0000000000000000e+00  0.0000000000000000e+00  0.0000000000000000e+00  0.0000000000000000e+00  0.0000000000000000e+00  0.0000000000000000e+00  0.0000000000000000e+00  0.0000000000000000e+00  0.0000000000000000e+00  3.0000968278663430e-03  7.2977757247274181e-03  1.1894430180278978e-02  1.6208585602471022e-02  1.9942608427627410e-02  2.2759578846241094e-02  2.4297237623784565e-02  2.4179575041948072e-02  2.2087528793962353e-02  1.7900435965155736e-02  1.1780774744034177e-02  4.2778373608425560e-03  -3.7117772804640915e-03  -1.1079219866818058e-02  -1.6673931933289088e-02  -1.9599156052794452e-02  -1.9411090425243558e-02  -1.6179860549136886e-02  -1.0485356332120199e-02  -3.2188346463417161e-03  4.6743208254195609e-03  1.2370467001998842e-02  1.9273579581771061e-02  2.4943676127356051e-02  2.9042452885221323e-02  3.1226127848943828e-02  3.1037839284156168e-02  2.8133883227701800e-02  2.2246932779282899e-02  1.3475925000211868e-02  2.2963768638807375e-03  -1.0301979133941411e-02  -2.3166594544026399e-02  -3.4751193544362451e-02  -4.3292201022238512e-02  -4.8980909200669331e-02  -5.0457377123396673e-02  -4.8836595746939292e-02  -4.4725583171699307e-02  -3.9138542625407655e-02  -3.3581051171877749e-02  -2.8531933882350903e-02  -2.4802780533192032e-02  -2.2710424756701049e-02  -2.2434783574334437e-02  -2.4056273011057467e-02  -2.7622651903865959e-02  -3.3186793070953138e-02  -4.0696632928058619e-02  -5.0004436755746243e-02  -6.0864743108987804e-02  -7.2741181264014521e-02  -8.5321023132582954e-02  -9.7663578748643454e-02  -1.0925483747763649e-01  -1.1959652490313788e-01  -1.2839186903554578e-01  -1.3556446932967825e-01  -1.4126637329253486e-01  -1.4583060670796369e-01  -1.4967216681025647e-01  -1.5319769269939440e-01  -1.5670756618260154e-01  -1.6055831480448784e-01  -1.6490724346941416e-01  -1.6988950028491615e-01  -1.7552378289998904e-01  -1.8179914586942789e-01  -1.8865270570174372e-01  -1.9598197265120976e-01  -2.0354291010822523e-01  -2.1132168368575213e-01  -2.1900993028898530e-01  -2.2637813610508503e-01  -2.3297585202363347e-01  -2.3890683424388831e-01  -2.4358190123045781e-01  -2.4715762182469875e-01  -2.4963621993038748e-01  -2.5043315214131689e-01  -2.5006614586877274e-01  -2.4855492632278955e-01  -2.4617632967270800e-01  -2.4296940084076843e-01  -2.3904783433766041e-01  -2.3455385891709163e-01  -2.2966161462447168e-01  -2.2442174072978971e-01  -2.1887576184710625e-01  -2.1314020977500064e-01  -2.0722583196527555e-01  -2.0119272373361197e-01  -1.9506295604442583e-01  -1.8885624142172222e-01  -1.8259359616580315e-01  -1.7629808328850649e-01  -1.6997419962139704e-01  -1.6363320099421882e-01  -1.5728354891434945e-01  -1.5093331497367116e-01  -1.4458613036385470e-01  -1.3824299301921222e-01  -1.3190995018994728e-01  -1.2558800985166454e-01  -1.1927989824227955e-01  -1.1298613204769570e-01  -1.0670805185425850e-01  -1.0044763077442398e-01  -9.4203933233653753e-02  -8.7979063817642242e-02  -8.1772391985502679e-02  -7.5584628381754518e-02  -6.9416208855063374e-02  -6.3266903213073059e-02  -5.7137135064898946e-02  -5.1026914565999185e-02  -4.4936305230977858e-02  -3.8865346120039397e-02  -3.2814045117301065e-02  -2.6782418646399502e-02  -2.0770486310743887e-02  -1.4778321093725481e-02  -1.4779217572993504e-02  -1.4781455656647007e-02  -1.4784930308361933e-02  -1.4789158590944897e-02  -1.4793380099261158e-02  -1.4796867610179202e-02  -1.4799088548205218e-02  -1.4799988919257582e-02  -2.1380723627822359e-01  -2.2576659477774355e-01  -4.2003724225635830e-01  -3.5827835501132910e-01  -3.5230060100667487e-01  -3.3593206743599963e-01  -3.1603787344306583e-01  -2.9866080948571211e-01  -2.8245614448690959e-01  -2.6801637561776570e-01  -2.5633510992570052e-01  -2.4494264909852678e-01  -2.3367341897878352e-01  -2.2222917655222282e-01  -2.1037259419395465e-01  -1.9833118557885743e-01  -1.8541911061763508e-01  -2.1948124124681137e-01  -2.0342094351817150e-01  -1.5287927528498990e-01  -8.7235784031676020e-02  -4.1361634841405294e-02  -2.3642292235735704e-02  -2.5187156287984447e-01  -1.9920880836593402e-01  -2.8015012676703456e-02  -4.1699679703544608e-02  -4.8326729600872732e-02  -2.0815786003641792e-01  -3.1741431960308694e-02  -4.8733989857758595e-03  -1.7214095247783121e-01  1.3889803945050412e-02  -1.7173668908878764e-01  -1.5395511416489382e-01  1.2170983267057680e-02  -1.3814346359053650e-01  -1.5767017711068407e-01  -9.3422192261374340e-02  -9.1254314163393313e-04  -1.4353496650885897e-01  -2.0836614469882786e-01  -1.8204446992392240e-02  -3.6679639125267081e-02  -2.2168823415800643e-01  -1.2736198311247757e-01  -1.8717996977647477e-02  -2.5875746082151100e-02  -1.0958275940626126e-01  -4.1113707043882945e-02  6.5393089568658207e-03  -5.0379633987052509e-02  -2.4451178122246306e-01  2.5057058954554408e-02  -9.1713490756922394e-02  -2.9852549259319076e-02  -2.4998117204844486e-01  -2.4417564853244933e-01  7.4980950547422790e-03  1.6752024721133931e-02  -7.1812725071946804e-02  -5.7006917948393576e-02  -2.2888350942671817e-02  6.2168993649371759e-05  -1.6760922380383226e-02  -2.2727333533765323e-01  2.9841487310194762e-02  2.2429839835617579e-02  -2.0994503629795086e-01  -3.7833756898799098e-01  -4.1909927491121129e-01  -1.9211983145265782e-01  1.3125158723376225e-03  -2.0368194916449114e-02  -1.6766345016836157e-01  -2.0361613906900645e-02  -1.3524959785915225e-01  -8.5466150389460240e-03  -1.0357693145636197e-01  1.4511379813216459e-02  -8.4976955025136539e-02  -4.8112064720809838e-02  -6.6196138231548310e-02  2.4667328285599567e-02  -1.9833057656515111e-02  9.7924995286318437e-04  -4.0488647350552423e-02  -2.0491190540983575e-01  1.9002996614853628e-02  -8.4096996432535265e-03  -2.1348507114474594e-01  -2.0650204146293008e-01  -2.3470736119186880e-01  -1.8456099978674601e-01  -2.3688511622270875e-01  -1.7939828530750485e-01  -1.5441101077317396e-01  -1.2169571101893266e-01  -6.6990003085511285e-02  -1.2395093441238424e-01  -1.4678256084577757e-01  -1.6175318339111686e-01  -8.2172427298229683e-02  -1.0086398367302331e-01  3.0610548133949620e-02  -1.3318351670275839e-02  -1.1806184361111191e-01  2.3881163750214360e-02  -3.5936313992373931e-02  1.9170799105010832e-02  -7.8923711683426545e-03  -1.3531683729802541e-01  -2.2091396380949046e-02  -1.9860516715423108e-02  -1.0004755340424368e-02  -1.5038915117504159e-01  7.2109702928691271e-03  1.5316497921134847e-02  -2.3799028449748738e-02  6.8192671817236495e-03  -1.6519400548137556e-01  -1.8465793604449738e-02  -4.3279411005353714e-02  -4.7380022081030836e-02  -1.7893139037071609e-01  -3.5066145156450443e-02  1.7760504516279782e-04  -1.9186942899630216e-01  -2.0437028454901285e-01  -2.1656508854203738e-01  -2.2761551365501051e-01  -2.3954968672446292e-01  -2.5071692764457043e-01  -2.6240934643864022e-01  -2.7675718071494260e-01  -2.1780705240270842e-01  -2.9216561675558017e-01  -3.0895813046932485e-01  -3.2758882406063666e-01  -2.1579934262469100e-01  -3.4984371603002601e-01  -1.2017093512142396e-01  -1.8061933924846230e-01  -6.2824651364773651e-02  -2.9178303354985460e-02  -1.9443210393507604e-02  -2.9846011073026696e-01  2.5667996784808573e-03  -2.9449934521656104e-02  1.0214065712780069e-02  -2.0560024507240268e-01  4.7924888283570806e-04  -1.9301837346990782e-02  -2.0601330173714522e-01  -2.0577195788928548e-01  -2.0610997337779277e-01  -2.0550819911772794e-01  -2.0575716114908754e-01  -2.0519785631443907e-01  -2.0535017665289723e-01  -2.0466624749687362e-01  -2.0465182949668587e-01  -2.0363999854686141e-01  -2.0353797453723305e-01  -2.0202573026251835e-01  -2.0204244545069613e-01  -2.0028301551558947e-01  -2.0060462812684107e-01  -1.9916632648250393e-01  -1.9999243976435946e-01  -1.9925804904010802e-01  -2.0083594453572323e-01  -2.0114333146442848e-01  -2.0286347590042020e-01  -2.0034048403208291e-01  -2.0347453783937527e-01  -2.0559475965967444e-01  -2.0286355372022827e-01  -2.0324057767677425e-01  -2.0756189421230242e-01  -2.0926427235873804e-01  -2.1217335662242962e-01  -2.1326038500508204e-01  -2.1752826107524653e-01  -2.1696666276002477e-01  -2.2236691436464559e-01  -2.1964960493392935e-01  -2.2581269428887230e-01  -2.1902583401855655e-01  -2.2616350262592674e-01  -2.1785701232992422e-01  -2.2322498285429188e-01  -2.1262674847385887e-01  -2.1617356658917330e-01  -2.0183021880487595e-01  -2.0460003441849647e-01  -1.9150781545606085e-01  -1.8990576070254861e-01  -1.7736353598644650e-01  -1.7252417345546200e-01  -1.6230152994806635e-01  -1.5387738856308111e-01  -1.4661721349668641e-01  -1.3545925774665926e-01  -2.0598193266187356e-01  -2.0815542043342272e-01  -1.3150479382290325e-01  -1.1625481697459325e-01  -1.1759770888638163e-01  -1.0113300359566535e-01  -1.0588021869511222e-01  -8.8444356614982692e-02  -9.5723437434347303e-02  -7.7415415385009415e-02  -8.7276761903713015e-02  -6.8700192250569933e-02  -2.0690887381153408e-01  -8.0200027516265579e-02  -6.1916254367073778e-02  -7.4205419595253827e-02  -5.6852497976259082e-02  -6.9210275617955438e-02  -5.3183158420480735e-02  -2.1019860509607668e-01  -2.1406035738058465e-01  -2.0072459542466167e-01  -6.4568459641340781e-02  -5.0527262461808456e-02  -2.0607500201210760e-01  -5.9946049249150903e-02  -4.8601678718252328e-02  -5.6043653585506642e-02  -4.7290990600393629e-02  -5.2187038545858142e-02  -4.6264010983423462e-02  -2.1331300143991999e-01  -4.8761143895279448e-02  -4.5398722078999691e-02  -4.5033095150366152e-02  -4.4329139738106753e-02  -4.1616995980640864e-02  -4.3047737375021475e-02  -2.0270123115050828e-01  -2.0720565918350761e-01  -3.8270999654397037e-02  -4.1195837592364275e-02  -2.1507303562526808e-01  -2.2086807154569654e-01  -2.1104527450498695e-01  -1.7848558568821593e-01  -3.4579744705548997e-02  -3.8916248620161596e-02  -3.1281893177189914e-02  -3.6149728846900799e-02  -2.8399275899925074e-02  -3.3189563835446093e-02  -4.0063124504083454e-02  -4.5671758726805387e-02  -4.1378851500813774e-02  -5.1805960454437160e-02  -2.6244012937151423e-02  -3.0335265225770146e-02  -3.7307782802322990e-02  -3.3360117763330109e-02  -2.8118590276297283e-02  -2.9592550292682623e-02  -2.6755243448313207e-02  -2.6346647128326347e-02  -2.6463920075847393e-02  -2.4058912012572747e-02  -2.7359771926932341e-02  -2.2983548061839710e-02  -2.9231716690507812e-02  -2.2909783728587627e-02  -3.1989450811958822e-02  -2.3662683943596892e-02  -3.4580800780340572e-02  -2.4096276394706240e-02  -3.6712990098617677e-02  -2.4695478122859712e-02  -3.7471885073881932e-02  -2.4559558262399205e-02  -3.7106264998856484e-02  -2.3372216377168010e-02  -8.5404769330511540e-02  -1.4210124743731958e-01  -3.4257717537181681e-02  -2.1047168272120689e-02  -2.9159878676415455e-02  -1.7537139708740414e-02  -2.2173870365680559e-01  -2.2601807239326248e-02  -1.3452239690827893e-02  -1.8425824921152539e-01  -2.2517205735031784e-01  -2.2018274318272862e-01  -2.2708025081585323e-01  -2.2963919945654948e-01  -2.3574285495658087e-01  -2.4019771313848332e-01  -2.4613818277466396e-01  -2.5251403501452752e-01  -2.5743336132582439e-01  -2.6662115456836283e-01  -2.6872581142251573e-01  -2.8071655194345996e-01  -2.7911839535033300e-01  -2.9357580513764669e-01  -2.8865879024854668e-01  -3.0617743817620863e-01  -2.9733465303093398e-01  -3.1084402786026361e-01  -3.0032712554112700e-01  -3.1356073651420019e-01  -3.0432485443676122e-01  -3.1413436047703169e-01  -3.0457622071502488e-01  -3.1253800196616160e-01  -3.0322440386004029e-01  -3.0953342469058776e-01  -3.0079072649118810e-01  -3.0571886198777326e-01  -2.9758748751553671e-01  -2.9535352346943960e-01  -2.9229386967894799e-01  -2.8961261995588272e-01  -2.9387871151457878e-01  -2.8653258150219429e-01  -2.8985142076805803e-01  -2.8310594890382601e-01  -2.8579087786858987e-01  -2.7949382252838134e-01  -2.7966875747700515e-01  -2.8242402660922428e-01  -2.7578698615683622e-01  -2.7720363106454343e-01  -2.7170156699160414e-01  -2.6987367057040701e-01  -2.6625284165081670e-01  -2.6761032972303717e-01  -2.6255551392019888e-01  -2.6333727134801033e-01  -2.5872996020337685e-01  -2.4417722674460829e-01  -2.5909898006325077e-01  -2.5482063969831492e-01  -2.5396916743252135e-01  -2.5033836910486285e-01  -2.5093265625031946e-01  -2.4664025771520512e-01  -2.4701456637845895e-01  -2.4289459675844952e-01  -3.0997820486046551e-01  -2.8510122960071382e-01  -2.7800558563883676e-01  -3.2341210156132544e-01  -2.4308769922265244e-01  -2.3908196644706836e-01  -2.3878972856794087e-01  -2.3506495651274364e-01  -2.3520454349482325e-01  -2.3130143545406312e-01  -2.3125621767829130e-01  -2.2745891355229775e-01  -2.2744335049744965e-01  -2.2370148932757306e-01  -2.2351389620186488e-01  -2.1986561267434979e-01  -2.6429953279217039e-01  -2.1952201208720115e-01  -2.1601062519643721e-01  -3.2250900130185872e-01  -2.5783798265754843e-01  -2.4939417396529154e-01  -3.1397484845683654e-01  -2.1557379516585276e-01  -2.1202302118388855e-01  -2.1269250724271963e-01  -2.0850046830406502e-01  -2.0809357748694798e-01  -2.0445014337002412e-01  -2.0485636397572266e-01  -2.0083472817843254e-01  -2.0038128771783217e-01  -1.9679946918063337e-01  -2.9213355852169931e-01  -1.9630849232796990e-01  -1.9268129008253818e-01  -2.2347498408234731e-01  -2.6716385946429883e-01  -1.1341150917868721e-01  -2.8233531428174491e-01  -1.9319076608509905e-01  -1.8907105134192184e-01  -1.8853950935640770e-01  -1.8494362822407373e-01  -1.5288023275066223e-02  -9.1773385395153666e-03  -7.6180386908626446e-03  -5.0699367258321641e-03  -2.3196880186639990e-04  -1.4695340113968075e-03  -1.8422663449318891e-01  -1.8069089792173218e-01  -7.9971065066024652e-02  -1.8129746848441275e-01  -1.7708153654738173e-01  -1.7658485637999424e-01  -1.7288463561696546e-01  -2.0483128244541313e-01  -2.3383279549122493e-01  -2.5115356552399526e-01  -1.4998175004775018e-02  6.2254838298577871e-03  1.4166637707229875e-03  -3.9405784306200106e-02  -1.1138261888682709e-02  -6.0475028473963967e-03  -6.0910148966601728e-03  3.7261468911957674e-03  -5.9403805117796424e-03  5.4499426631123959e-03  -5.3171785050131534e-03  6.9471628576614920e-03  -3.8761751090906401e-03  8.1010821270290859e-03  -1.8300226102638201e-03  9.0189479493183455e-03  7.4228130652224131e-04  9.4025704422987435e-03  3.1226847266378685e-03  8.7476846252695223e-03  4.8827506651997381e-03  6.8983020557975916e-03  5.5100424549373479e-03  3.9356460552829103e-03  5.0027186483277853e-03  -3.03