<?xml version="1.0"?>
<VTKFile type="UnstructuredGrid"  version="0.1"  >
<UnstructuredGrid>
<Piece  NumberOfPoints="2886" NumberOfCells="5412">
<Points>
<DataArray  type="Float64"  NumberOfComponents="3"  format="ascii">0 0.1 0  0.98 0.1 0  1 0.1 0  1 0 0  1.5 0 0  3 0 0  3 0.3 0  0 0.3 0  0.01975375321854102 0.1 0  0.03918897458218897 0.1 0  0.05831079002627837 0.1 0  0.07712425666319796 0.1 0  0.0956343475259058 0.1 0  0.1138459546796227 0.1 0  0.1317638870668193 0.1 0  0.1493928840275937 0.1 0  0.1667376092280033 0.1 0  0.1838026357802664 0.1 0  0.2005924801287244 0.1 0  0.2171115811543574 0.1 0  0.2333643037107681 0.1 0  0.2493549444060462 0.1 0  0.2650877293306821 0.1 0  0.2805668058011438 0.1 0  0.2957962848620976 0.1 0  0.3107801766802674 0.1 0  0.3255224447361181 0.1 0  0.3400269848175519 0.1 0  0.3542976327080778 0.1 0  0.3683381609158136 0.1 0  0.3821522744564845 0.1 0  0.3957436316838916 0.1 0  0.4091158196437086 0.1 0  0.4222723742184605 0.1 0  0.4352167733293057 0.1 0  0.4479524348643424 0.1 0  0.4604827295467524 0.1 0  0.4728109659990664 0.1 0  0.4849404035409129 0.1 0  0.4968742471455402 0.1 0  0.508615651843175 0.1 0  0.520167721130924 0.1 0  0.5315335063628542 0.1 0  0.5427160117228604 0.1 0  0.5537181940261912 0.1 0  0.564542961924507 0.1 0  0.575193173270606 0.1 0  0.5856716438765114 0.1 0  0.5959811458006617 0.1 0  0.6061243988680743 0.1 0  0.6161040893285659 0.1 0  0.6259228503970299 0.1 0  0.6355832809287655 0.1 0  0.6450879281079505 0.1 0  0.6544393102991295 0.1 0  0.663639896558931 0.1 0  0.6726921201956305 0.1 0  0.6815983691630338 0.1 0  0.6903610031396646 0.1 0  0.6989823343332418 0.1 0  0.7074646404270378 0.1 0  0.7158101645005117 0.1 0  0.7240211149852543 0.1 0  0.7320996585612525 0.1 0  0.7400479319727645 0.1 0  0.7478680336617921 0.1 0  0.755562036504958 0.1 0  0.7631319665092091 0.1 0  0.7705798279317605 0.1 0  0.777907588066146 0.1 0  0.7851171851013118 0.1 0  0.7922105226004981 0.1 0  0.7991894774550319 0.1 0  0.8060558928136696 0.1 0  0.812811583201334 0.1 0  0.8194583352091183 0.1 0  0.8259979035038147 0.1 0  0.8324320194413813 0.1 0  0.8387623808293405 0.1 0  0.8449906627004957 0.1 0  0.8511185094880469 0.1 0  0.8571475426008311 0.1 0  0.8630793533568246 0.1 0  0.8689155114558531 0.1 0  0.8746575581239063 0.1 0  0.8803070109173519 0.1 0  0.885865363938836 0.1 0  0.8913340851680313 0.1 0  0.8967146206523592 0.1 0  0.9020083930695622 0.1 0  0.9072167995950768 0.1 0  0.9123412183131177 0.1 0  0.9173830029719022 0.1 0  0.9223434865647732 0.1 0  0.9272239785872722 0.1 0  0.9320257720706087 0.1 0  0.9367501330378739 0.1 0  0.9413983102716995 0.1 0  0.9459715351562933 0.1 0  0.9504710127113115 0.1 0  0.9548979346500661 0.1 0  0.9592534708344373 0.1 0  0.9635387708980176 0.1 0  0.9677549682252325 0.1 0  0.971903177251235 0.1 0  0.9759844952956497 0.1 0  0.9840000000000086 0.1 0  0.987999999999974 0.1 0  0.9919999999999393 0.1 0  0.9959999999999913 0.1 0  1 0.09591793123533533 0  1 0.09133596463859224 0  1 0.08619288104391448 0  1 0.08041996484521211 0  1 0.07394008421771697 0  1 0.06666666567302955 0  1 0.05850252932209174 0  1 0.04933859630113544 0  1 0.03905242821848202 0  1 0.02750659386753798 0  1 0.01454683679239736 0  1.015625 0 0  1.03125 0 0  1.046875 0 0  1.0625 0 0  1.078125 0 0  1.09375 0 0  1.109375 0 0  1.125 0 0  1.140625 0 0  1.15625 0 0  1.171875 0 0  1.1875 0 0  1.203125 0 0  1.21875 0 0  1.234375 0 0  1.25 0 0  1.265625 0 0  1.28125 0 0  1.296875 0 0  1.3125 0 0  1.328125 0 0  1.34375 0 0  1.359375 0 0  1.375 0 0  1.390625 0 0  1.40625 0 0  1.421875 0 0  1.4375 0 0  1.453125 0 0  1.46875 0 0  1.484375 0 0  1.515920751924515 0 0  1.531989369316721 0 0  1.54820720925872 0 0  1.564575665560501 0 0  1.581096138674279 0 0  1.597770029901263 0 0  1.614598783332311 0 0  1.631583831055205 0 0  1.64872661129721 0 0  1.666028606716533 0 0  1.683491276608443 0 0  1.701116134125304 0 0  1.718904673324128 0 0  1.736858414799339 0 0  1.754978895814663 0 0  1.773267661782904 0 0  1.791726281103402 0 0  1.810356325314689 0 0  1.8291593848892 0 0  1.848137076690385 0 0  1.867291007717254 0 0  1.886622833871288 0 0  1.90613418642363 0 0  1.925826753299799 0 0  1.945702199101513 0 0  1.96576223584749 0 0  1.986008569283268 0 0  2.006442931928877 0 0  2.02706707547783 0 0  2.047882750887917 0 0  2.06889175187935 0 0  2.090095860038271 0 0  2.111496891648636 0 0  2.133096679109554 0 0  2.154897066851056 0 0  2.176899916687499 0 0  2.199107102752146 0 0  2.22152053937028 0 0  2.244142122958061 0 0  2.266973806444078 0 0  2.290017523268154 0 0  2.313275249499252 0 0  2.336748971745516 0 0  2.360440702338606 0 0  2.384352453384031 0 0  2.408486280477412 0 0  2.432844240041185 0 0  2.457428414757088 0 0  2.482240901796653 0 0  2.507283830121838 0 0  2.532559332080812 0 0  2.558069568787417 0 0  2.583816724966441 0 0  2.60980299606584 0 0  2.636030600971886 0 0  2.662501790984011 0 0  2.689218818279327 0 0  2.716183964547616 0 0  2.743399548861297 0 0  2.77086788244719 0 0  2.798591312896326 0 0  2.826572223178268 0 0  2.854812990138617 0 0  2.883316031690714 0 0  2.912083780657189 0 0  2.941118704633482 0 0  2.970423276998917 0 0  3 0.02999999999994495 0  3 0.05999999999987042 0  3 0.089999999999783 0  3 0.119999999999701 0  3 0.149999999999619 0  3 0.179999999999692 0  3 0.2099999999997737 0  3 0.2399999999998511 0  3 0.2699999999999185 0  2.970138294777171 0.3 0  2.940375666438236 0.3 0  2.910711782853056 0.3 0  2.881146331305122 0.3 0  2.851678975030285 0.3 0  2.822309388626621 0.3 0  2.793037250095074 0.3 0  2.76386223529133 0.3 0  2.734784017903872 0.3 0  2.705802289276642 0.3 0  2.676916713794697 0.3 0  2.648126987654635 0.3 0  2.619432780406184 0.3 0  2.590833779385199 0.3 0  2.562329669847737 0.3 0  2.533920134950189 0.3 0  2.505604855727852 0.3 0  2.477383539822502 0.3 0  2.449255847639465 0.3 0  2.421221492569094 0.3 0  2.393280152486815 0.3 0  2.36543151914496 0.3 0  2.337675285481809 0.3 0  2.310011142385583 0.3 0  2.282438797441587 0.3 0  2.254957931061538 0.3 0  2.227568248063605 0.3 0  2.200269436651085 0.3 0  2.173061204949961 0.3 0  2.145943251515011 0.3 0  2.118915272469994 0.3 0  2.091976978084957 0.3 0  2.065128060700849 0.3 0  2.038368218849433 0.3 0  2.01169717777258 0.3 0  1.985114624111908 0.3 0  1.958620267850966 0.3 0  1.93221382054972 0.3 0  1.905894991850698 0.3 0  1.879663489459713 0.3 0  1.853519019126419 0.3 0  1.827461291053897 0.3 0  1.801490031354372 0.3 0  1.775604937580312 0.3 0  1.74980572560258 0.3 0  1.724092118631866 0.3 0  1.698463829173586 0.3 0  1.672920575782554 0.3 0  1.647462076974085 0.3 0  1.622088043536933 0.3 0  1.5967981978949 0.3 0  1.571592267767068 0.3 0  1.546469970305736 0.3 0  1.521431023814044 0.3 0  1.496475156230927 0.3 0  1.471602093687753 0.3 0  1.446811560490646 0.3 0  1.422103279101731 0.3 0  1.397476971708191 0.3 0  1.37293238939876 0.3 0  1.348469231419202 0.3 0  1.324087248732772 0.3 0  1.299786165921677 0.3 0  1.275565710847046 0.3 0  1.251425617644257 0.3 0  1.227365618676339 0.3 0  1.203385446174014 0.3 0  1.179484853067473 0.3 0  1.155663548773374 0.3 0  1.131921292279077 0.3 0  1.108257802159295 0.3 0  1.084672829009693 0.3 0  1.061166115303374 0.3 0  1.037737392995421 0.3 0  1.01438640299116 0.3 0  0.991112899770314 0.3 0  0.9679166155523955 0.3 0  0.944797284182564 0.3 0  0.921754678526042 0.3 0  0.8987885143602501 0.3 0  0.8758985548820624 0.3 0  0.8530845484099929 0.3 0  0.8303462351786988 0.3 0  0.8076833651172373 0.3 0  0.7850956864865304 0.3 0  0.7625829601354557 0.3 0  0.7401449314598274 0.3 0  0.717781337993959 0.3 0  0.6954919649675473 0.3 0  0.6732765357561226 0.3 0  0.6511348120768439 0.3 0  0.6290665642016573 0.3 0  0.6070715355430467 0.3 0  0.5851494825775325 0.3 0  0.5633001690203812 0.3 0  0.5415233562273221 0.3 0  0.5198187909431873 0.3 0  0.4981862401387795 0.3 0  0.4766254686134248 0.3 0  0.4551362360485234 0.3 0  0.4337182975262159 0.3 0  0.4123714223228037 0.3 0  0.3910953802377493 0.3 0  0.3698899313205595 0.3 0  0.3487548463710963 0.3 0  0.3276898864081783 0.3 0  0.3066948129116018 0.3 0  0.2857694003037476 0.3 0  0.2649134227095047 0.3 0  0.2441266417321288 0.3 0  0.2234088223399122 0.3 0  0.2027597568977288 0.3 0  0.1821792020676698 0.3 0  0.1616669305402443 0.3 0  0.1412227158799362 0.3 0  0.12084633013886 0.3 0  0.1005375673448281 0.3 0  0.08029618164595353 0.3 0  0.06012194778526769 0.3 0  0.04001466495039718 0.3 0  0.01997408913631205 0.3 0  0 0.2800000000000553 0  0 0.2600000000001105 0  0 0.2400000000001658 0  0 0.2200000000002211 0  0 0.2000000000002764 0  0 0.1800000000002244 0  0 0.1600000000001691 0  0 0.140000000000115 0  0 0.1200000000000564 0  1.13346801534201 0.01255848438672509 0  1.003577645172735 0.09351054173913405 0  0.9777559943702486 0.1034978156913738 0  0.9524533750752109 0.1040889939962738 0  0.9296242411226409 0.1041520033606139 0  0.9046110503652111 0.104409422380137 0  0.8777709649694228 0.1053360318797398 0  0.8483859145648608 0.1061007868330701 0  0.8162363822948977 0.1052777104363292 0  0.7893110024210437 0.1060761643971561 0  0.7587949382612539 0.1067265405088633 0  0.7280603867732535 0.1069398153264939 0  0.6947001989413015 0.1075609887579097 0  0.6590363283767549 0.1076715322596598 0  0.6210028614493155 0.1072970410408442 0  1.1953125 0.01353164693413185 0  1.258193991486058 0.01269648635163345 0  1.3201967268638 0.01407907077719561 0  1.383538555392096 0.01434101079053473 0  1.445312500000001 0.01303671693628424 0  1.508925448095738 0.01398525724792267 0  0.9939176689634008 0.1034638089837981 0  1.120967497222226 0.2796788492172345 0  1.572835902117391 0.01424132418857359 0  1.637573277451887 0.01212536916586023 0  1.709730776795181 0.01466855431023635 0  1.005631976950563 0.07074019818158772 0  1.784944696816299 0.01454708406461822 0  0.5805605730631225 0.1101465090472147 0  1.855621181165637 0.01550931272897607 0  0.5366111276616774 0.1096761308243709 0  1.935200147913231 0.01760344159641829 0  1.214922267975168 0.2799787705802257 0  1.31178773425331 0.2792
[...]
<PointData  Scalars="pressure"> 
<DataArray  type="Float64"  Name="pressure"  format="ascii">1.5723326861477518e-01  -1.6570579499234719e-01  -2.1448099178633517e-01  -1.6072843250648278e-01  -3.9475634350142202e-02  0.0000000000000000e+00  0.0000000000000000e+00  1.5724075614546912e-01  1.5130714656761712e-01  1.4547651097594658e-01  1.3973979393831309e-01  1.3409547046672476e-01  1.2854202628523528e-01  1.2307798180037599e-01  1.1770190266774151e-01  1.1241231665604334e-01  1.0720782833635942e-01  1.0208704861491932e-01  9.7048570717904084e-02  9.2091044496164329e-02  8.7213155393985484e-02  8.2413538242541481e-02  7.7690894163794752e-02  7.3044009368469137e-02  6.8471483050995902e-02  6.3972122732721279e-02  5.9544684952083704e-02  5.5187865742873134e-02  5.0900500922860505e-02  4.6681460680932770e-02  4.2529388569945259e-02  3.8443204787615565e-02  3.4421615789591131e-02  3.0463522989269038e-02  2.6567881301717951e-02  2.2733414556370946e-02  1.8958938166973562e-02  1.5243403161055148e-02  1.1585674764813892e-02  7.9845533540133379e-03  4.4390454257396501e-03  9.4790743404479848e-04  -2.4898853551269459e-03  -5.8755171989059597e-03  -9.2100666100255468e-03  -1.2494212344594541e-02  -1.5729801988622047e-02  -1.8917445732129404e-02  -2.2058270477757082e-02  -2.5153570809403909e-02  -2.8204375332463224e-02  -3.1211123147857990e-02  -3.4175911277719351e-02  -3.7099219899197428e-02  -3.9982188918586521e-02  -4.2825972352183418e-02  -4.5631574232523071e-02  -4.8400061281698450e-02  -5.1132640250765936e-02  -5.3830258848767548e-02  -5.6493901444250733e-02  -5.9124539503449723e-02  -6.1723793487301330e-02  -6.4292043421448633e-02  -6.6830593275728198e-02  -6.9340106250944000e-02  -7.1822679838256964e-02  -7.4278731680321217e-02  -7.6708504980854908e-02  -7.9113800630404657e-02  -8.1496246670015274e-02  -8.3855513980574170e-02  -8.6193754374900552e-02  -8.8511703281994453e-02  -9.0809653873595228e-02  -9.3089255758352335e-02  -9.5351437910622242e-02  -9.7597164843512066e-02  -9.9828250164304161e-02  -1.0204479933646408e-01  -1.0424728277013005e-01  -1.0643641946963875e-01  -1.0861581014314663e-01  -1.1078451574791344e-01  -1.1294326637800481e-01  -1.1509404315263309e-01  -1.1723728298173632e-01  -1.1937400774919958e-01  -1.2150541753916096e-01  -1.2363352062769237e-01  -1.2575883975152624e-01  -1.2788167622965690e-01  -1.3000458311058014e-01  -1.3212857472664877e-01  -1.3425492399727668e-01  -1.3638519505215294e-01  -1.3852080138231768e-01  -1.4066363321502046e-01  -1.4281569120612769e-01  -1.4497924644866564e-01  -1.4715687204597142e-01  -1.4935030435328059e-01  -1.5156326564156153e-01  -1.5378924434518765e-01  -1.5617902317474777e-01  -1.5780717160627231e-01  -1.6187817250001224e-01  -1.6101605437745220e-01  -1.6569950418113041e-01  -1.6230613071736569e-01  -2.0235938812335261e-01  -1.8112080638637984e-01  -1.7456467634607922e-01  -1.6978366989710428e-01  -1.6655135036400215e-01  -1.6412367088414651e-01  -1.6230401630697985e-01  -1.6096972590792880e-01  -1.6016771328869395e-01  -1.5997019885808644e-01  -1.6037596214704011e-01  -1.6116968056561493e-01  -1.6154404923764942e-01  -1.6133677383597855e-01  -1.6066303442009386e-01  -1.5961324430541735e-01  -1.5823086215632959e-01  -1.5650053093904662e-01  -1.5440919253359223e-01  -1.5198584593492145e-01  -1.4924779622434708e-01  -1.4619892125275494e-01  -1.4285295430462247e-01  -1.3922102315482296e-01  -1.3531523338681797e-01  -1.3115615445841700e-01  -1.2675689196511922e-01  -1.2213005215476413e-01  -1.1729425411960578e-01  -1.1226870945744517e-01  -1.0706441670203937e-01  -1.0171167094210504e-01  -9.6229310490455217e-02  -9.0633583425318090e-02  -8.4955886415193971e-02  -7.9214931889999340e-02  -7.3441036281925581e-02  -6.7656784758488894e-02  -6.1885304394542998e-02  -5.6158751058684495e-02  -5.0498349921459219e-02  -4.4930417409768386e-02  -3.4058709517139477e-02  -2.8765032017906565e-02  -2.3604217962306582e-02  -1.8610542243437757e-02  -1.3810714894942790e-02  -9.2070444449886980e-03  -4.8256427274275598e-03  -6.7164052121619308e-04  3.2061341853692124e-03  6.8326867082767404e-03  1.0208373409552728e-02  1.3312478304062068e-02  1.6147847745055795e-02  1.8722275510653207e-02  2.1040405296654904e-02  2.3107933045431125e-02  2.4940976047872151e-02  2.6540725090336378e-02  2.7921921814721740e-02  2.9115749288680576e-02  3.0111169394836199e-02  3.0938693338808210e-02  3.1612209806270664e-02  3.2139922223939618e-02  3.2543467109645292e-02  3.2827350814139546e-02  3.3022417965908539e-02  3.3119532039731475e-02  3.3139390549648776e-02  3.3086824139717898e-02  3.2969483454580020e-02  3.2796544271597186e-02  3.2576957919753173e-02  3.2314587657519732e-02  3.2010043223649802e-02  3.1670139602624658e-02  3.1295372684654467e-02  3.0888175162739055e-02  3.0449390365520676e-02  2.9979203014866462e-02  2.9477760154964200e-02  2.8944765776570774e-02  2.8378809821987594e-02  2.7779982266480745e-02  2.7145654164289743e-02  2.6474382353610704e-02  2.5767099787306642e-02  2.5018954008839245e-02  2.4227901974704862e-02  2.3398240528719871e-02  2.2520399607886585e-02  2.1601416997022137e-02  2.0630804933972822e-02  1.9617374345064949e-02  1.8553378111917332e-02  1.7435001896011701e-02  1.6272790644805836e-02  1.5052565755915442e-02  1.3785701581280936e-02  1.2466140780368418e-02  1.1092902257446189e-02  9.6659923947346616e-03  8.1876203455543452e-03  6.6609349261803116e-03  5.0766028129283639e-03  3.4523203445155988e-03  1.7718090487341500e-03  0.0000000000000000e+00  0.0000000000000000e+00  0.0000000000000000e+00  0.0000000000000000e+00  0.0000000000000000e+00  0.0000000000000000e+00  0.0000000000000000e+00  0.0000000000000000e+00  0.0000000000000000e+00  1.9270305466262537e-03  3.7263420887885166e-03  5.4980701492161194e-03  7.2169305613955645e-03  8.8866881739678508e-03  1.0506114832295641e-02  1.2074316457201568e-02  1.3589596948195731e-02  1.5049127013166715e-02  1.6450729629937221e-02  1.7790424596123434e-02  1.9065759843409965e-02  2.0271690564888353e-02  2.1405241589000389e-02  2.2461579634207890e-02  2.3434175857403577e-02  2.4322605376159111e-02  2.5115792307598972e-02  2.5809073331944706e-02  2.6396293228163607e-02  2.6870609052427930e-02  2.7225324663283385e-02  2.7454807356201379e-02  2.7548353284103443e-02  2.7504026604147976e-02  2.7310412596287258e-02  2.6965103764707860e-02  2.6456762627195152e-02  2.5780264126444047e-02  2.4932891116980722e-02  2.3903992612094815e-02  2.2688061669518585e-02  2.1299871301449828e-02  1.9725095350811111e-02  1.7937942909520332e-02  1.5978730089284431e-02  1.3823654775461080e-02  1.1474195054529422e-02  8.9315185070377792e-03  6.2034290154713871e-03  3.2810569069341134e-03  1.7804897297319825e-04  -3.1136692217508975e-03  -6.5835934050800498e-03  -1.0242641992406010e-02  -1.4075714480450714e-02  -1.8083516672836971e-02  -2.2257761521262399e-02  -2.6601106405483414e-02  -3.1100132874103077e-02  -3.5752320773927967e-02  -4.0546358982229407e-02  -4.5469492895536652e-02  -5.0513160368391256e-02  -5.5661817605248250e-02  -6.0892804875419329e-02  -6.6149375875255587e-02  -7.1474296519317915e-02  -7.6786198672560382e-02  -8.2027139471247637e-02  -8.7199921709300840e-02  -9.2234783929975833e-02  -9.7112672853853485e-02  -1.0172915125583193e-01  -1.0607839040908965e-01  -1.1005210449049048e-01  -1.1363853426435677e-01  -1.1672861092478637e-01  -1.1932620567537580e-01  -1.2129982163350946e-01  -1.2266386152063302e-01  -1.2334553247440808e-01  -1.2321418147915859e-01  -1.2243847181284349e-01  -1.2087877574759454e-01  -1.1853919809078038e-01  -1.1553390029683322e-01  -1.1188322367679475e-01  -1.0771294372304810e-01  -1.0309237239934793e-01  -9.8020227027467141e-02  -9.2636182066093586e-02  -8.6980443058683590e-02  -8.1148884515934161e-02  -7.5146075521154446e-02  -6.9001119164767477e-02  -6.2768421946362798e-02  -5.6461633637274806e-02  -5.0092315215176930e-02  -4.3685040648851946e-02  -3.7245149454251426e-02  -3.0791718988837730e-02  -2.4327810712095124e-02  -1.7856123303496462e-02  -1.1388562024830412e-02  -4.9264260288678970e-03  1.5290096379345134e-03  7.9741242862149796e-03  1.4405694202458534e-02  2.0822507753463448e-02  2.7224021981090966e-02  3.3608641779164186e-02  3.9976167625843641e-02  4.6324924826341742e-02  5.2655278207272851e-02  5.8966472106750323e-02  6.5258221954441462e-02  7.1530425690971317e-02  7.7782760972119308e-02  8.4015172928609064e-02  9.0227622890367704e-02  9.6420008555719541e-02  1.0259229994174872e-01  1.0874449487858368e-01  1.1487660266495973e-01  1.2098859869425381e-01  1.2708055409621391e-01  1.3315248772410399e-01  1.3920442712218653e-01  1.4523642640745474e-01  1.5124851916349635e-01  1.5724072721808782e-01  1.5724041600305974e-01  1.5723965595441677e-01  1.5723846287002669e-01  1.5723701366699791e-01  1.5723556296861441e-01  1.5723436739062199e-01  1.5723360227741531e-01  1.5723329218024887e-01  -1.5283334194970927e-01  -1.8552235047401577e-01  -1.5995315955549630e-01  -1.4610738489149749e-01  -1.3542698026186428e-01  -1.2477688125047788e-01  -1.1419972884438118e-01  -1.0332240474017157e-01  -9.2021228270742078e-02  -8.2922345056284097e-02  -7.2895681027570269e-02  -6.3026176141027887e-02  -5.2504606569837603e-02  -4.1413012959261426e-02  -2.9710898663034752e-02  -1.4089534026692468e-01  -1.2431974507670066e-01  -1.0453078162103381e-01  -8.2027132984647991e-02  -5.9296641623126527e-02  -3.6800309430108952e-02  -1.7279998362066518e-01  -1.2138994833724269e-01  -1.6603528385103011e-02  3.3158639728817087e-04  1.4317991168823360e-02  -1.6602228855132184e-01  2.3953399747015006e-02  -1.7368287732970850e-02  2.9238373827380371e-02  -4.0306753224129948e-03  3.2122998524349071e-02  -1.1128107044569549e-01  -9.4041845962913970e-02  3.3008370605778582e-02  -7.3698374628845278e-02  9.7852852537553478e-03  -4.7593125523324294e-02  3.2603525603140220e-02  2.4649131673929386e-02  -1.5843632680881797e-01  3.1414874489306785e-02  -2.4203298574296983e-02  -1.2236425694274690e-01  4.0054048071881079e-02  2.9680562999670982e-02  -1.4155860695795586e-03  5.7553190196432215e-02  7.4285222620370248e-03  2.7399577817828195e-02  1.4995395104341978e-02  7.4845035265384191e-02  -1.1673372553477036e-01  2.4638958204078076e-02  2.0497137110656986e-02  -1.0528703133188259e-01  2.4420781254390834e-02  2.1097574421481625e-02  -8.9800591049853412e-02  9.5045687282598171e-02  1.0906297169590440e-01  -1.2054582414996705e-02  1.7964476594114355e-02  1.4245941823974225e-02  2.6636858586247668e-02  -7.2277225136286080e-02  2.7394340384313074e-02  -1.5265564950556526e-01  -4.7329028316910875e-02  2.6532888089778352e-02  1.2651488392701318e-01  -2.7597740072684885e-02  1.0351652596806621e-02  2.3811169859291208e-02  -8.0366580563628904e-03  1.7781258398946443e-02  2.0770317689173094e-02  4.9490760743921655e-02  1.7062189926494609e-02  6.8450623849626482e-02  8.7227399763175631e-02  1.2788203934031364e-02  1.1882692748790324e-01  1.6144060192819336e-03  1.5165708117327001e-01  -1.6116616700951258e-01  8.1486625636327369e-03  5.7468750357509406e-03  1.3662945211673558e-01  -1.7256096217475617e-01  -1.6050602170680700e-01  -1.1741737004725954e-01  -5.9521774250648488e-02  4.2580117191838617e-03  3.0084271194904096e-02  1.3696916731494863e-01  -3.8269420165601128e-02  -6.2806485944101056e-02  -8.3986919012679295e-02  -1.0324246606993202e-01  8.5107823059541163e-02  2.7306329716366116e-02  6.5933968216006944e-02  9.9468719065079356e-02  2.5374846433285060e-02  2.2953908597920729e-02  4.8230920911391147e-02  2.6014065572306774e-02  2.8621313461853006e-02  3.2691763311755224e-02  3.0612459343815391e-02  3.2089568843006164e-02  3.2936609727742219e-02  3.2789311527965506e-02  -2.6555379429012312e-02  1.7099332494370022e-02  3.0983732384904740e-02  2.6929006926580526e-02  2.7101072494843462e-03  1.9749854755491986e-02  8.1409901428383009e-03  -7.2610585033646615e-03  1.3454230230554071e-03  -1.1216596590137915e-02  -2.3158865057156003e-02  1.5199678583433512e-01  -3.5328361733372025e-02  -4.7028034609107712e-02  -5.7825749412814029e-02  -6.8199959574826385e-02  -7.7988109022898447e-02  -8.7280186404232823e-02  -1.4733841678377066e-01  -9.8759309078293944e-02  -1.0975620231137324e-01  -1.2051631612316115e-01  -1.3317402573290019e-01  -1.3123206853894781e-01  -9.3771841532888797e-02  -1.1432252483989536e-01  -7.1633385544072878e-02  -4.8032178901632541e-02  -1.4186122588843258e-01  -1.6270411492036091e-01  1.6936292873832746e-03  1.5150036304574266e-01  4.5410081620263186e-03  -1.6093979852129611e-01  1.5224865424688439e-01  1.3710682340977933e-03  1.4814474135175534e-01  -1.6090623918994582e-01  -1.6056681330759939e-01  -1.6010453286173809e-01  -1.6060778461665420e-01  -1.6012799344749482e-01  -1.6095964055295395e-01  -1.6029832301277694e-01  -1.6141431007146592e-01  -1.6058227216224971e-01  -1.6173521034304675e-01  -1.6078435728448670e-01  -1.6165968856395346e-01  -1.6051309527984725e-01  -1.6102530938239618e-01  -1.5974047387944248e-01  -1.5993914156330946e-01  -1.5847724804763461e-01  -1.5846292598757813e-01  -1.5682958854563900e-01  -1.5643218800638817e-01  -1.5448856808656666e-01  -1.5812810405590927e-01  -1.5499007921301858e-01  -1.5225851817995889e-01  -1.5543211663192094e-01  -1.5741329390903638e-01  -1.5253479213766080e-01  -1.4965646571094771e-01  -1.4985716271451155e-01  -1.4661107267787529e-01  -1.4669611193412080e-01  -1.4312797038633371e-01  -1.4313050648413725e-01  -1.3948736437947931e-01  -1.3915707552620690e-01  -1.3478302490847657e-01  -1.3455871308759715e-01  -1.3036155819501666e-01  -1.2971552605110126e-01  -1.2535824757585598e-01  -1.2447226113049908e-01  -1.2002905324451824e-01  -1.1891611067192961e-01  -1.1443614633449141e-01  -1.1305617469574883e-01  -1.0861024980311344e-01  -1.0692725175991588e-01  -1.0256822973598348e-01  -1.0059539356581293e-01  -9.6390026904800044e-02  -9.4077103180332022e-02  -9.0115071723495144e-02  -8.7339401083073948e-02  -1.5365007210879086e-01  -1.5547592962322043e-01  -8.3762624027731297e-02  -8.0560825979935927e-02  -7.7411152170160230e-02  -7.4213095899012774e-02  -7.1161025954880178e-02  -6.7609292014827613e-02  -6.5015216661085160e-02  -6.1135673671926537e-02  -1.4856758913416776e-01  -5.9086732616406443e-02  -5.4783941900422871e-02  -5.3092596825204168e-02  -4.8573959810893595e-02  -4.7492540038697330e-02  -4.2649450476580822e-02  -1.5091461861540273e-01  -1.5291739112977462e-01  -1.6216067865750272e-01  -4.2053067667537802e-02  -3.6928717476167723e-02  -3.6894628804499938e-02  -3.1497779212145111e-02  -3.1998134619305930e-02  -2.6386585451381384e-02  -1.5876619252173860e-01  -2.7380867983733383e-02  -2.1562975925741475e-02  -1.3880544827454788e-01  -2.3027900956566011e-02  -1.7072495061979408e-02  -1.8969120645146571e-02  -1.2906332813497194e-02  -1.5120582969841295e-02  -9.0542805129389461e-03  -1.5910434628426848e-01  -1.2527701088767140e-01  -1.1607575899249047e-02  -5.5159362591958158e-03  -1.4725658172854433e-01  -1.4855276794209907e-01  -1.4561122834367171e-01  -1.0931454271187994e-01  -8.2850016507207726e-03  -2.1300273595672783e-03  -5.3050697262458681e-03  9.0299318589278071e-04  -2.4739139101273531e-03  3.5231132414409129e-03  -3.7643856234263376e-02  7.5225461667099806e-04  -2.0824186167419753e-02  -5.6955697495538853e-02  1.4782458687749478e-04  5.9228183062669257e-03  9.3026956551245724e-03  1.1540753484536447e-02  8.1674712904062710e-03  1.3556927946458189e-02  1.0284857204689465e-02  1.5437334529884611e-02  1.2194100684833179e-02  1.7070094092603631e-02  1.3941937440348603e-02  1.8575671827373623e-02  1.5587894084711198e-02  1.9896344184373135e-02  1.7013279213078467e-02  2.1103545414982633e-02  1.8440204196888254e-02  2.2305762062184133e-02  1.9713267109169975e-02  2.3290056361243275e-02  2.0913704508269012e-02  2.4143806979091097e-02  2.1871697175559316e-02  2.4921609346156243e-02  -7.7084475441803441e-02  -9.2213025989608371e-02  2.2853234209973976e-02  2.5576262758376270e-02  2.3783693300471156e-02  2.6200190125495192e-02  -1.4593952437375957e-01  -1.1088135595818246e-01  2.4611173426493282e-02  2.6712986563932728e-02  -1.2815737622748863e-01  -7.4827229682458182e-02  -1.4268799349951444e-01  -1.4357337591557859e-01  -1.5022536269030207e-01  -1.4411755552659603e-01  -1.4972001938567306e-01  -1.4394933202081042e-01  -1.4990145545739977e-01  -1.4324288008380157e-01  -1.4744681093941817e-01  -1.4151058193410432e-01  -1.4582678727089504e-01  -1.3935839758131247e-01  -1.4213741342903893e-01  -1.3651809427358622e-01  -1.3858776562654071e-01  -1.3345975497071724e-01  -1.3487618734099005e-01  -1.3010377096635792e-01  -1.3107763121742774e-01  -1.2664077885389671e-01  -1.2722141459611253e-01  -1.2306366776573599e-01  -1.2336883208706878e-01  -1.1945009930947934e-01  -1.1951933715253504e-01  -1.1585314287370303e-01  -1.1535665579937182e-01  -1.1196531567161523e-01  -1.1210242723554892e-01  -1.0849290744857126e-01  -1.0827292516834625e-01  -1.0488231509323237e-01  -1.0467561422540554e-01  -1.0131458894393158e-01  -1.0084089024838866e-01  -9.7682718507439412e-02  -1.3118116839832514e-01  -1.0815767926334957e-01  -1.2204825656524011e-01  -9.7139558227878259e-02  -9.3972130218416161e-02  -9.4274372787132771e-02  -9.0740272247296805e-02  -9.0220913427888738e-02  -8.7125114400696535e-02  -8.6424566171370884e-02  -8.3453050725458930e-02  -8.2643525473216795e-02  -7.9722337694480200e-02  -8.6908387462117390e-02  -1.5490844557008443e-01  -1.4758801855713613e-01  -7.8923605632432670e-02  -7.5935491931512167e-02  -7.6691117446033394e-02  -7.2911641463856411e-02  -7.2124950666081850e-02  -6.9151711438374869e-02  -6.8257605682022743e-02  -6.5365763121988274e-02  -1.3964745829159597e-01  -6.9675882518878490e-02  -6.4413634179909987e-02  -6.1594125426148422e-02  -1.3130186756766074e-01  -6.0683940011910943e-02  -5.7766303961240585e-02  -5.8948810625255872e-02  -5.4800997086377493e-02  -5.3829604064034892e-02  -5.0753515921480148e-02  -5.1682853139319584e-02  -4.7638288482621478e-02  -4.6723670919362872e-02  -4.3602145569293753e-02  -4.2678262017351205e-02  -3.9472528593915264e-02  -4.0421422352947219e-02  -3.6295663189541763e-02  -3.5316705710681656e-02  -3.2165188982452866e-02  -3.1224595028237351e-02  -2.8052297643744235e-02  -1.3878542209724859e-01  -1.0798270334011033e-01  -1.2304901042964320e-01  -2.7205339280794886e-02  -2.3971467452621166e-02  -2.4830572253232253e-02  -2.0596680176348480e-02  -1.9742532900050049e-02  -1.6368696340600671e-02  -2.1454570348810195e-02  2.5267312800680192e-02  2.7139812228648842e-02  2.5864016239645765e-02  2.7499418973066209e-02  2.6395459747558324e-02  2.7788001945566895e-02  -8.9549428356912417e-02  -4.7132213841703650e-02  -1.6198501991931827e-01  -1.5482388119245957e-02  -1.2175946802075243e-02  -1.0017694495395338e-01  2.2965235540014992e-02  2.6991269887580157e-02  1.4390740911522870e-02  2.6835729519712595e-02  2.7996348695872020e-02  2.9036202970199598e-02  2.9025241213988966e-02  2.8130563393742713e-02  2.8962170333599123e-02  2.8197563499779910e-02  2.8840471197436227e-02  2.8182502841160233e-02  2.8652536929725976e-02  2.8095271131930354e-02  2.8406547209110768e-02  2.7924572401461987e-02  2.8089264637430372e-02  2.7678044633637232e-02  2.7712629494979116e-02  2.7358723185089549e-02  2.7274690629911509e-02  2.6970056523647420e-02  2.6777592317998880e-02  2.6501324256020982e-02  2.6206344029038427e-02  2.5951225806085266e-02  2.5583685093065814e-02  2.5324535933827781e-02  2.4874452145367903e-02  2.4637646341359860e-02  2.4124931380249716e-02  2.3856359813387525e-02  2.3289891146318645e-02  2.3020920973557145e-02  2.2407459314018826e-02  2.8708752853074188e-02  -3.7311842026548664e-02  -7.1266066612081999e-02  -1.1167128623260841e-02  -7.8737329848823142e-03  -8.8732996038610006e-03  -4.4199436721050938e-03  -5.4638098344757515e-03  -9.0725393877550558e-04  1.6746246808548112e-05  3.5489826458959379e-03  4.5930209095196746e-03  8.0975288184402267e-03  7.1508802109094220e-03  1.1687434105118194e-02  1.2492224719100699e-02  1.6188874082976812e-02  1.6979916424821474e-02