<?xml version="1.0"?>
<VTKFile type="UnstructuredGrid"  version="0.1"  >
<UnstructuredGrid>
<Piece  NumberOfPoints="2886" NumberOfCells="5412">
<Points>
<DataArray  type="Float64"  NumberOfComponents="3"  format="ascii">0 0.1 0  0.98 0.1 0  1 0.1 0  1 0 0  1.5 0 0  3 0 0  3 0.3 0  0 0.3 0  0.01975375321854102 0.1 0  0.03918897458218897 0.1 0  0.05831079002627837 0.1 0  0.07712425666319796 0.1 0  0.0956343475259058 0.1 0  0.1138459546796227 0.1 0  0.1317638870668193 0.1 0  0.1493928840275937 0.1 0  0.1667376092280033 0.1 0  0.1838026357802664 0.1 0  0.2005924801287244 0.1 0  0.2171115811543574 0.1 0  0.2333643037107681 0.1 0  0.2493549444060462 0.1 0  0.2650877293306821 0.1 0  0.2805668058011438 0.1 0  0.2957962848620976 0.1 0  0.3107801766802674 0.1 0  0.3255224447361181 0.1 0  0.3400269848175519 0.1 0  0.3542976327080778 0.1 0  0.3683381609158136 0.1 0  0.3821522744564845 0.1 0  0.3957436316838916 0.1 0  0.4091158196437086 0.1 0  0.4222723742184605 0.1 0  0.4352167733293057 0.1 0  0.4479524348643424 0.1 0  0.4604827295467524 0.1 0  0.4728109659990664 0.1 0  0.4849404035409129 0.1 0  0.4968742471455402 0.1 0  0.508615651843175 0.1 0  0.520167721130924 0.1 0  0.5315335063628542 0.1 0  0.5427160117228604 0.1 0  0.5537181940261912 0.1 0  0.564542961924507 0.1 0  0.575193173270606 0.1 0  0.5856716438765114 0.1 0  0.5959811458006617 0.1 0  0.6061243988680743 0.1 0  0.6161040893285659 0.1 0  0.6259228503970299 0.1 0  0.6355832809287655 0.1 0  0.6450879281079505 0.1 0  0.6544393102991295 0.1 0  0.663639896558931 0.1 0  0.6726921201956305 0.1 0  0.6815983691630338 0.1 0  0.6903610031396646 0.1 0  0.6989823343332418 0.1 0  0.7074646404270378 0.1 0  0.7158101645005117 0.1 0  0.7240211149852543 0.1 0  0.7320996585612525 0.1 0  0.7400479319727645 0.1 0  0.7478680336617921 0.1 0  0.755562036504958 0.1 0  0.7631319665092091 0.1 0  0.7705798279317605 0.1 0  0.777907588066146 0.1 0  0.7851171851013118 0.1 0  0.7922105226004981 0.1 0  0.7991894774550319 0.1 0  0.8060558928136696 0.1 0  0.812811583201334 0.1 0  0.8194583352091183 0.1 0  0.8259979035038147 0.1 0  0.8324320194413813 0.1 0  0.8387623808293405 0.1 0  0.8449906627004957 0.1 0  0.8511185094880469 0.1 0  0.8571475426008311 0.1 0  0.8630793533568246 0.1 0  0.8689155114558531 0.1 0  0.8746575581239063 0.1 0  0.8803070109173519 0.1 0  0.885865363938836 0.1 0  0.8913340851680313 0.1 0  0.8967146206523592 0.1 0  0.9020083930695622 0.1 0  0.9072167995950768 0.1 0  0.9123412183131177 0.1 0  0.9173830029719022 0.1 0  0.9223434865647732 0.1 0  0.9272239785872722 0.1 0  0.9320257720706087 0.1 0  0.9367501330378739 0.1 0  0.9413983102716995 0.1 0  0.9459715351562933 0.1 0  0.9504710127113115 0.1 0  0.9548979346500661 0.1 0  0.9592534708344373 0.1 0  0.9635387708980176 0.1 0  0.9677549682252325 0.1 0  0.971903177251235 0.1 0  0.9759844952956497 0.1 0  0.9840000000000086 0.1 0  0.987999999999974 0.1 0  0.9919999999999393 0.1 0  0.9959999999999913 0.1 0  1 0.09591793123533533 0  1 0.09133596463859224 0  1 0.08619288104391448 0  1 0.08041996484521211 0  1 0.07394008421771697 0  1 0.06666666567302955 0  1 0.05850252932209174 0  1 0.04933859630113544 0  1 0.03905242821848202 0  1 0.02750659386753798 0  1 0.01454683679239736 0  1.015625 0 0  1.03125 0 0  1.046875 0 0  1.0625 0 0  1.078125 0 0  1.09375 0 0  1.109375 0 0  1.125 0 0  1.140625 0 0  1.15625 0 0  1.171875 0 0  1.1875 0 0  1.203125 0 0  1.21875 0 0  1.234375 0 0  1.25 0 0  1.265625 0 0  1.28125 0 0  1.296875 0 0  1.3125 0 0  1.328125 0 0  1.34375 0 0  1.359375 0 0  1.375 0 0  1.390625 0 0  1.40625 0 0  1.421875 0 0  1.4375 0 0  1.453125 0 0  1.46875 0 0  1.484375 0 0  1.515920751924515 0 0  1.531989369316721 0 0  1.54820720925872 0 0  1.564575665560501 0 0  1.581096138674279 0 0  1.597770029901263 0 0  1.614598783332311 0 0  1.631583831055205 0 0  1.64872661129721 0 0  1.666028606716533 0 0  1.683491276608443 0 0  1.701116134125304 0 0  1.718904673324128 0 0  1.736858414799339 0 0  1.754978895814663 0 0  1.773267661782904 0 0  1.791726281103402 0 0  1.810356325314689 0 0  1.8291593848892 0 0  1.848137076690385 0 0  1.867291007717254 0 0  1.886622833871288 0 0  1.90613418642363 0 0  1.925826753299799 0 0  1.945702199101513 0 0  1.96576223584749 0 0  1.986008569283268 0 0  2.006442931928877 0 0  2.02706707547783 0 0  2.047882750887917 0 0  2.06889175187935 0 0  2.090095860038271 0 0  2.111496891648636 0 0  2.133096679109554 0 0  2.154897066851056 0 0  2.176899916687499 0 0  2.199107102752146 0 0  2.22152053937028 0 0  2.244142122958061 0 0  2.266973806444078 0 0  2.290017523268154 0 0  2.313275249499252 0 0  2.336748971745516 0 0  2.360440702338606 0 0  2.384352453384031 0 0  2.408486280477412 0 0  2.432844240041185 0 0  2.457428414757088 0 0  2.482240901796653 0 0  2.507283830121838 0 0  2.532559332080812 0 0  2.558069568787417 0 0  2.583816724966441 0 0  2.60980299606584 0 0  2.636030600971886 0 0  2.662501790984011 0 0  2.689218818279327 0 0  2.716183964547616 0 0  2.743399548861297 0 0  2.77086788244719 0 0  2.798591312896326 0 0  2.826572223178268 0 0  2.854812990138617 0 0  2.883316031690714 0 0  2.912083780657189 0 0  2.941118704633482 0 0  2.970423276998917 0 0  3 0.02999999999994495 0  3 0.05999999999987042 0  3 0.089999999999783 0  3 0.119999999999701 0  3 0.149999999999619 0  3 0.179999999999692 0  3 0.2099999999997737 0  3 0.2399999999998511 0  3 0.2699999999999185 0  2.970138294777171 0.3 0  2.940375666438236 0.3 0  2.910711782853056 0.3 0  2.881146331305122 0.3 0  2.851678975030285 0.3 0  2.822309388626621 0.3 0  2.793037250095074 0.3 0  2.76386223529133 0.3 0  2.734784017903872 0.3 0  2.705802289276642 0.3 0  2.676916713794697 0.3 0  2.648126987654635 0.3 0  2.619432780406184 0.3 0  2.590833779385199 0.3 0  2.562329669847737 0.3 0  2.533920134950189 0.3 0  2.505604855727852 0.3 0  2.477383539822502 0.3 0  2.449255847639465 0.3 0  2.421221492569094 0.3 0  2.393280152486815 0.3 0  2.36543151914496 0.3 0  2.337675285481809 0.3 0  2.310011142385583 0.3 0  2.282438797441587 0.3 0  2.254957931061538 0.3 0  2.227568248063605 0.3 0  2.200269436651085 0.3 0  2.173061204949961 0.3 0  2.145943251515011 0.3 0  2.118915272469994 0.3 0  2.091976978084957 0.3 0  2.065128060700849 0.3 0  2.038368218849433 0.3 0  2.01169717777258 0.3 0  1.985114624111908 0.3 0  1.958620267850966 0.3 0  1.93221382054972 0.3 0  1.905894991850698 0.3 0  1.879663489459713 0.3 0  1.853519019126419 0.3 0  1.827461291053897 0.3 0  1.801490031354372 0.3 0  1.775604937580312 0.3 0  1.74980572560258 0.3 0  1.724092118631866 0.3 0  1.698463829173586 0.3 0  1.672920575782554 0.3 0  1.647462076974085 0.3 0  1.622088043536933 0.3 0  1.5967981978949 0.3 0  1.571592267767068 0.3 0  1.546469970305736 0.3 0  1.521431023814044 0.3 0  1.496475156230927 0.3 0  1.471602093687753 0.3 0  1.446811560490646 0.3 0  1.422103279101731 0.3 0  1.397476971708191 0.3 0  1.37293238939876 0.3 0  1.348469231419202 0.3 0  1.324087248732772 0.3 0  1.299786165921677 0.3 0  1.275565710847046 0.3 0  1.251425617644257 0.3 0  1.227365618676339 0.3 0  1.203385446174014 0.3 0  1.179484853067473 0.3 0  1.155663548773374 0.3 0  1.131921292279077 0.3 0  1.108257802159295 0.3 0  1.084672829009693 0.3 0  1.061166115303374 0.3 0  1.037737392995421 0.3 0  1.01438640299116 0.3 0  0.991112899770314 0.3 0  0.9679166155523955 0.3 0  0.944797284182564 0.3 0  0.921754678526042 0.3 0  0.8987885143602501 0.3 0  0.8758985548820624 0.3 0  0.8530845484099929 0.3 0  0.8303462351786988 0.3 0  0.8076833651172373 0.3 0  0.7850956864865304 0.3 0  0.7625829601354557 0.3 0  0.7401449314598274 0.3 0  0.717781337993959 0.3 0  0.6954919649675473 0.3 0  0.6732765357561226 0.3 0  0.6511348120768439 0.3 0  0.6290665642016573 0.3 0  0.6070715355430467 0.3 0  0.5851494825775325 0.3 0  0.5633001690203812 0.3 0  0.5415233562273221 0.3 0  0.5198187909431873 0.3 0  0.4981862401387795 0.3 0  0.4766254686134248 0.3 0  0.4551362360485234 0.3 0  0.4337182975262159 0.3 0  0.4123714223228037 0.3 0  0.3910953802377493 0.3 0  0.3698899313205595 0.3 0  0.3487548463710963 0.3 0  0.3276898864081783 0.3 0  0.3066948129116018 0.3 0  0.2857694003037476 0.3 0  0.2649134227095047 0.3 0  0.2441266417321288 0.3 0  0.2234088223399122 0.3 0  0.2027597568977288 0.3 0  0.1821792020676698 0.3 0  0.1616669305402443 0.3 0  0.1412227158799362 0.3 0  0.12084633013886 0.3 0  0.1005375673448281 0.3 0  0.08029618164595353 0.3 0  0.06012194778526769 0.3 0  0.04001466495039718 0.3 0  0.01997408913631205 0.3 0  0 0.2800000000000553 0  0 0.2600000000001105 0  0 0.2400000000001658 0  0 0.2200000000002211 0  0 0.2000000000002764 0  0 0.1800000000002244 0  0 0.1600000000001691 0  0 0.140000000000115 0  0 0.1200000000000564 0  1.13346801534201 0.01255848438672509 0  1.003577645172735 0.09351054173913405 0  0.9777559943702486 0.1034978156913738 0  0.9524533750752109 0.1040889939962738 0  0.9296242411226409 0.1041520033606139 0  0.9046110503652111 0.104409422380137 0  0.8777709649694228 0.1053360318797398 0  0.8483859145648608 0.1061007868330701 0  0.8162363822948977 0.1052777104363292 0  0.7893110024210437 0.1060761643971561 0  0.7587949382612539 0.1067265405088633 0  0.7280603867732535 0.1069398153264939 0  0.6947001989413015 0.1075609887579097 0  0.6590363283767549 0.1076715322596598 0  0.6210028614493155 0.1072970410408442 0  1.1953125 0.01353164693413185 0  1.258193991486058 0.01269648635163345 0  1.3201967268638 0.01407907077719561 0  1.383538555392096 0.01434101079053473 0  1.445312500000001 0.01303671693628424 0  1.508925448095738 0.01398525724792267 0  0.9939176689634008 0.1034638089837981 0  1.120967497222226 0.2796788492172345 0  1.572835902117391 0.01424132418857359 0  1.637573277451887 0.01212536916586023 0  1.709730776795181 0.01466855431023635 0  1.005631976950563 0.07074019818158772 0  1.784944696816299 0.01454708406461822 0  0.5805605730631225 0.1101465090472147 0  1.855621181165637 0.01550931272897607 0  0.5366111276616774 0.1096761308243709 0  1.935200147913231 0.01760344159641829 0  1.214922267975168 0.2799787705802257 0  1.31178773425331 0.2792
[...]
<PointData  Scalars="pressure"> 
<DataArray  type="Float64"  Name="pressure"  format="ascii">1.5496375554126432e-01  -1.6625307842310291e-01  -2.1185432182192745e-01  -1.5935755686439446e-01  -3.7559943485849484e-02  0.0000000000000000e+00  0.0000000000000000e+00  1.5497177661734357e-01  1.4903763377460222e-01  1.4320699326035491e-01  1.3747026395274978e-01  1.3182592030793339e-01  1.2627244645634023e-01  1.2080836195786879e-01  1.1543223305944493e-01  1.1014258394529487e-01  1.0493801944972167e-01  9.9817149255785484e-02  9.4778562916632031e-02  8.9820908965283747e-02  8.4942872486367615e-02  8.0143082905284838e-02  7.5420239148407953e-02  7.0773129577218569e-02  6.6200341505143728e-02  6.1700683209480627e-02  5.7272907373699070e-02  5.2915700440644822e-02  4.8627897306928347e-02  4.4408368256509977e-02  4.0255739518240158e-02  3.6168932532074545e-02  3.2146638344060043e-02  2.8187755771475927e-02  2.4291239486999489e-02  2.0455795651204554e-02  1.6680227361655642e-02  1.2963481662156513e-02  9.3044126592527199e-03  5.7018038402522671e-03  2.1546584314460168e-03  -1.3382893274912584e-03  -4.7780719562750913e-03  -8.1658937143982285e-03  -1.1502846583461216e-02  -1.4789596024569789e-02  -1.8028059631730282e-02  -2.1218830730153845e-02  -2.4363058029224179e-02  -2.7462069463591175e-02  -3.0516909581294153e-02  -3.3527993670655995e-02  -3.6497511533257386e-02  -3.9425923798355883e-02  -4.2314398142557497e-02  -4.5164118398213743e-02  -4.7976108387343196e-02  -5.0751460557132137e-02  -5.3491417961665670e-02  -5.6196947050666017e-02  -5.8869054729130760e-02  -6.1508735214353585e-02  -6.4117678646119766e-02  -6.6696247414559484e-02  -6.9245794925851756e-02  -7.1766988141423460e-02  -7.4262035808278046e-02  -7.6731341846759615e-02  -7.9175128280150664e-02  -8.1595287988288440e-02  -8.3993529233204064e-02  -8.6369462084339793e-02  -8.8725362958192888e-02  -9.1061984393595433e-02  -9.3379610227479107e-02  -9.5679983333002733e-02  -9.7964071301774008e-02  -1.0023288617199637e-01  -1.0248835294035218e-01  -1.0473056832779593e-01  -1.0696000691108534e-01  -1.0917743987411523e-01  -1.1138673377277121e-01  -1.1358686310136371e-01  -1.1577861591836941e-01  -1.1796413170020367e-01  -1.2014389411074496e-01  -1.2231902227886511e-01  -1.2449084763816551e-01  -1.2666158616292039e-01  -1.2883183987419969e-01  -1.3100200959294919e-01  -1.3317496221013969e-01  -1.3535190880146281e-01  -1.3753436821928228e-01  -1.3972423554509525e-01  -1.4192326761024823e-01  -1.4413380747863222e-01  -1.4635840669883249e-01  -1.4860002589706331e-01  -1.5086228032854773e-01  -1.5314738018465265e-01  -1.5546293698641567e-01  -1.5781074022968783e-01  -1.6022985582314594e-01  -1.6252309522098113e-01  -1.6745795212095621e-01  -1.6936512052374622e-01  -1.7350304355036583e-01  -1.6879485363551397e-01  -2.0057737490355598e-01  -1.7970368390249217e-01  -1.7319211811807350e-01  -1.6842776132480161e-01  -1.6519904506102082e-01  -1.6277090456444701e-01  -1.6094857141788638e-01  -1.5960982939859231e-01  -1.5880290918796125e-01  -1.5860099724356685e-01  -1.5900465438045180e-01  -1.5979931758612106e-01  -1.6017174383059027e-01  -1.5996056237724499e-01  -1.5928089454952710e-01  -1.5822284925781752e-01  -1.5682958014460946e-01  -1.5508534130593865e-01  -1.5297681017631859e-01  -1.5053307943072708e-01  -1.4777158429203238e-01  -1.4469627418124853e-01  -1.4132112021650095e-01  -1.3765755755108550e-01  -1.3371799300849274e-01  -1.2952346962108577e-01  -1.2508757657511124e-01  -1.2042341376466334e-01  -1.1555016230433628e-01  -1.1048765015289773e-01  -1.0524768426301881e-01  -9.9860878076456924e-02  -9.4347154125687768e-02  -8.8723244911866408e-02  -8.3021366203510222e-02  -7.7260593761015295e-02  -7.1472508995384626e-02  -6.5679761371541259e-02  -5.9906236865345651e-02  -5.4184483303545444e-02  -4.8536121460611550e-02  -4.2987713331557639e-02  -3.2178319167934614e-02  -2.6927910458688486e-02  -2.1818512091213497e-02  -1.6883881442974612e-02  -1.2150013977035516e-02  -7.6194172538865228e-03  -3.3161786521624056e-03  7.5492148717537814e-04  4.5458116817513111e-03  8.0827250157847318e-03  1.1367781266133062e-02  1.4381294642643483e-02  1.7127139589253281e-02  1.9614491783584015e-02  2.1849098905994277e-02  2.3837518950134994e-02  2.5596758384618064e-02  2.7128997154491644e-02  2.8448778800350082e-02  2.9587977777401117e-02  3.0535676678628918e-02  3.1322042924186000e-02  3.1960787856897183e-02  3.2459629203929079e-02  3.2839672991419842e-02  3.3104769157770185e-02  3.3284756038087414e-02  3.3370263540506470e-02  3.3380993567900800e-02  3.3321215614449104e-02  3.3198087107433119e-02  3.3020188351712818e-02  3.2796033296007311e-02  3.2529207576510989e-02  3.2220207458197141e-02  3.1875659774687738e-02  3.1496046869360153e-02  3.1083785725780116e-02  3.0639747526113720e-02  3.0164166888919371e-02  2.9657224963410871e-02  2.9118649937119771e-02  2.8547061753918447e-02  2.7942517759519236e-02  2.7302413234168925e-02  2.6625286986491283e-02  2.5911979230821662e-02  2.5157662699116963e-02  2.4360400838232085e-02  2.3524206003557792e-02  2.2639851390807514e-02  2.1714016103133362e-02  2.0736660550941859e-02  1.9716165334697597e-02  1.8645083845699632e-02  1.7519712186077445e-02  1.6350246995107953e-02  1.5123045175401603e-02  1.3849007292350541e-02  1.2522338484141037e-02  1.1142008160243850e-02  9.7082457300840096e-03  8.2230672531025482e-03  6.6895113875793917e-03  5.0981802758257597e-03  3.4669220213515897e-03  1.7797376651015817e-03  0.0000000000000000e+00  0.0000000000000000e+00  0.0000000000000000e+00  0.0000000000000000e+00  0.0000000000000000e+00  0.0000000000000000e+00  0.0000000000000000e+00  0.0000000000000000e+00  0.0000000000000000e+00  1.9275492056553120e-03  3.7288519370991804e-03  5.5039055393371703e-03  7.2264711252996543e-03  8.9003820950420646e-03  1.0524477554110076e-02  1.2097937770913815e-02  1.3619098277741753e-02  1.5085132911698095e-02  1.6493949965236086e-02  1.7841612184141389e-02  1.9125763662102634e-02  2.0341420775090643e-02  2.1485692809930537e-02  2.2553812561852165e-02  2.3539397017155215e-02  2.4442056163740209e-02  2.5250798241162595e-02  2.5961007535061226e-02  2.6566577803991541e-02  2.7060708347051984e-02  2.7436677020511710e-02  2.7688925123711461e-02  2.7806827250522199e-02  2.7788340750048796e-02  2.7622326221339810e-02  2.7306478178578009e-02  2.6829618531552853e-02  2.6186865945128878e-02  2.5375676342042019e-02  2.4385547415195163e-02  2.3210966792574624e-02  2.1866565446377884e-02  2.0337122352736162e-02  1.8596953471141143e-02  1.6685289352254381e-02  1.4577209952621102e-02  1.2273442623124417e-02  9.7739334083874595e-03  7.0862130648132252e-03  4.2004274211164191e-03  1.1299830424149522e-03  -2.1327339657948178e-03  -5.5771057062004746e-03  -9.2132957657830548e-03  -1.3025883237917752e-02  -1.7014524606433670e-02  -2.1170535333368785e-02  -2.5495939079436175e-02  -2.9976988691289889e-02  -3.4611145879351379e-02  -3.9387216705022807e-02  -4.4293030429554174e-02  -4.9320409842175908e-02  -5.4454223767835624e-02  -5.9673047359318956e-02  -6.4922882086383596e-02  -7.0243929098973257e-02  -7.5558264816132148e-02  -8.0810614406240822e-02  -8.6003174725529680e-02  -9.1068464944514704e-02  -9.5988759534503809e-02  -1.0066170816333654e-01  -1.0508272697953401e-01  -1.0914581872137982e-01  -1.1283963179619179e-01  -1.1605759345847505e-01  -1.1880319743140572e-01  -1.2094610799093401e-01  -1.2249940301683880e-01  -1.2338814853494057e-01  -1.2347724762098058e-01  -1.2293107240213889e-01  -1.2160021528489336e-01  -1.1948155699206509e-01  -1.1668271541986389e-01  -1.1321738423233858e-01  -1.0921081518615518e-01  -1.0473168073619418e-01  -9.9775658453280153e-02  -9.4488238601383695e-02  -8.8910889397568013e-02  -8.3145121807500402e-02  -7.7195401545077855e-02  -7.1092552141651347e-02  -6.4894494689235749e-02  -5.8615764032310169e-02  -5.2268660009744977e-02  -4.5879432265815312e-02  -3.9453780427483771e-02  -3.3012103960567710e-02  -2.6557679975079421e-02  -2.0093395547061393e-02  -1.3631993172488800e-02  -7.1748681189745481e-03  -7.2338835547290496e-04  5.7185661395879024e-03  1.2147540255570190e-02  1.8562231461748180e-02  2.4962053899822076e-02  3.1345294935492526e-02  3.7711736298348959e-02  4.4059579596828220e-02  5.0389210840299042e-02  5.6699815714911485e-02  6.2991084504574080e-02  6.9262903115476115e-02  7.5514921569652574e-02  8.1747076022060522e-02  8.7959320084234335e-02  9.4151539774558438e-02  1.0032369779801169e-01  1.0647578699462079e-01  1.1260781249867276e-01  1.1871974309492143e-01  1.2481165057746171e-01  1.3088354990123510e-01  1.3693546576119103e-01  1.4296745184071152e-01  1.4897953890466756e-01  1.5497174562975061e-01  1.5497141224181282e-01  1.5497059803555868e-01  1.5496931993273541e-01  1.5496776745801061e-01  1.5496621338133626e-01  1.5496493260717084e-01  1.5496411297543117e-01  1.5496378078501610e-01  -1.5138997996209305e-01  -1.8395197139516775e-01  -1.6412122474311644e-01  -1.4978581647733957e-01  -1.3874703045570150e-01  -1.2783445446503319e-01  -1.1705989251714856e-01  -1.0602744767085019e-01  -9.4604615811338666e-02  -8.5431751688772151e-02  -7.5342432518838709e-02  -6.5426529560568061e-02  -5.4868382649804807e-02  -4.3748898000930722e-02  -3.2026052561443336e-02  -1.3934947904579778e-01  -1.2263436298998365e-01  -1.0270279213759388e-01  -8.0088462755286902e-02  -5.7325668289787551e-02  -3.4908720445134919e-02  -1.7742368074167295e-01  -1.2111332331887237e-01  -1.4911401614337729e-02  1.7287781393585597e-03  1.5347367540565772e-02  -1.6465882542598245e-01  2.4641149070596856e-02  -1.9668551793004526e-02  2.9696413211155563e-02  -6.3201043848842590e-03  3.2434877741963908e-02  -1.1043003230526234e-01  -9.2902778796346952e-02  3.3254836541169557e-02  -7.2477092920054428e-02  7.5031257769543943e-03  -4.6417998045732017e-02  3.2826372029101429e-02  2.2371893225279531e-02  -1.5703936106531810e-01  3.1618519305358556e-02  -2.3115431968736975e-02  -1.2274431000261750e-01  3.7779957574892706e-02  2.9862618089378089e-02  -4.5340381516527112e-04  5.5281199877549543e-02  8.2909039156352261e-03  2.7558385114966041e-02  1.5721214395412984e-02  7.2574220959889663e-02  -1.1776554733771269e-01  2.4774111620129803e-02  2.1084443854034393e-02  -1.0684646795700083e-01  2.4879780493592029e-02  2.1206013189531595e-02  -9.1687206443716515e-02  9.2775615388794683e-02  1.0679318245075226e-01  -1.1021099976839767e-02  1.8051833410436563e-02  1.4311190902099714e-02  2.6993410153148469e-02  -7.4343908944299736e-02  2.7640374915859529e-02  -1.5661813095303539e-01  -4.9511996337161732e-02  2.6714619855300371e-02  1.2424528547041425e-01  -2.9822261094044445e-02  1.0396569495980281e-02  2.3925528461216757e-02  -1.0282415484513930e-02  1.5522098041311112e-02  2.0847065732836931e-02  4.7225101609104134e-02  1.7110935853059218e-02  6.6183309844075430e-02  8.4959210208825228e-02  1.2816207285704324e-02  1.1655809994901188e-01  1.6186350307240882e-03  1.4938788275123888e-01  -1.5980147170969014e-01  8.1619005512714952e-03  5.7706241690238282e-03  1.3436050297400209e-01  -1.7116759063319192e-01  -1.5912665181459010e-01  -1.1681478058599137e-01  -6.1660803353551105e-02  2.0044396456909124e-03  2.7821789127330600e-02  1.3469962495109478e-01  -3.7126436961842341e-02  -6.1592685452351310e-02  -8.2786458647211292e-02  -1.0221357022295167e-01  8.2837449550974163e-02  2.7605555478838112e-02  6.3662629995446127e-02  9.7200193726269271e-02  2.5520102763694045e-02  2.3075943058541704e-02  4.5957959229347346e-02  2.6160619737393035e-02  2.8791948187513756e-02  3.0416356333858335e-02  3.0805614295760595e-02  3.2302969665763459e-02  3.3170482856720307e-02  3.3059752640941624e-02  -2.4746981683039074e-02  1.4819885298971562e-02  3.1356558687122872e-02  2.7491127846860721e-02  4.2460578520810821e-04  2.0597397701657121e-02  9.3488292125001506e-03  -5.7152405424451165e-03  1.3496650502349376e-03  -1.3511274586752780e-02  -2.5465386871158579e-02  1.4972738820895995e-01  -3.7652630872354528e-02  -4.9376873596542512e-02  -6.0206606905311953e-02  -7.0623105375492615e-02  -8.0464534380248517e-02  -8.9822866479508892e-02  -1.4584823163510632e-01  -1.0141070997948021e-01  -1.1254724433431852e-01  -1.2348794597992430e-01  -1.3156180337107221e-01  -1.3443938322360452e-01  -9.1882513902760962e-02  -1.1256070464471496e-01  -6.9668397871571641e-02  -4.6084923063306187e-02  -1.4538181891275936e-01  -1.6918904939703133e-01  1.6964264851200559e-03  1.4923133354345477e-01  4.5466243090867865e-03  -1.5956786888481655e-01  1.4997915056699274e-01  1.3762904378466917e-03  1.4587576457517659e-01  -1.5953150140464153e-01  -1.5919072103772688e-01  -1.5872392209706851e-01  -1.5923137192363362e-01  -1.5874721844660886e-01  -1.5958293742570265e-01  -1.5891664615330345e-01  -1.6003613126112204e-01  -1.5919891241587050e-01  -1.6035383051953470e-01  -1.5939765059475622e-01  -1.6027373878655007e-01  -1.5912096465512290e-01  -1.5963554130003521e-01  -1.5834298971504362e-01  -1.5855190120232304e-01  -1.5707961632854919e-01  -1.5709113727262744e-01  -1.5544485794087065e-01  -1.5510386212378172e-01  -1.5313387934265571e-01  -1.5682894140165940e-01  -1.5358158194373694e-01  -1.5087713391622101e-01  -1.5421648978997760e-01  -1.5625323510798325e-01  -1.5110807453548064e-01  -1.4824816718482356e-01  -1.4840484293778558e-01  -1.4517451129568254e-01  -1.4521581294772393e-01  -1.4166400216736097e-01  -1.4161947955037851e-01  -1.3798810079721927e-01  -1.3761180230262746e-01  -1.3325463017251588e-01  -1.3297790424676931e-01  -1.2879289360275520e-01  -1.2809739873790965e-01  -1.2375452762129363e-01  -1.2281610989306536e-01  -1.1839209191035410e-01  -1.1722300815278254e-01  -1.1276833500678958e-01  -1.1132824303309831e-01  -1.0691427288687388e-01  -1.0516754676255914e-01  -1.0085014853316757e-01  -9.8808839000148779e-02  -9.4654326169526196e-02  -9.2273505177952075e-02  -8.8368754779555928e-02  -8.5513687824967349e-02  -1.5261512916508388e-01  -1.5455512261174076e-01  -8.2017579056041442e-02  -7.8735456440957918e-02  -7.5668401774799818e-02  -7.2389947428744980e-02  -6.9436025726184292e-02  -6.5798773570333480e-02  -6.3314238416984095e-02  -5.9347718668289640e-02  -1.4723156884570537e-01  -5.7415201035747349e-02  -5.3027681218909065e-02  -5.1481309424655002e-02  -4.6862207261820443e-02  -4.5908327807461000e-02  -4.0985898083439241e-02  -1.5012776534373462e-01  -1.5232667211672152e-01  -1.6077647203720766e-01  -4.0522464385501569e-02  -3.5322845017811813e-02  -3.5420952220609113e-02  -2.9956969267328503e-02  -3.0585450270362271e-02  -2.4915253767987103e-02  -1.5774288583518950e-01  -2.6031137740253753e-02  -2.0165654298751716e-02  -1.3738824639054295e-01  -2.1742277995860784e-02  -1.5750951412026218e-02  -1.7746206169997423e-02  -1.1660556483460168e-02  -1.3957176922237673e-02  -7.8833426491708037e-03  -1.5770324669697058e-01  -1.2375087466703542e-01  -1.0501905872585796e-02  -4.4164200134989831e-03  -1.4677074252105243e-01  -1.4830596470315083e-01  -1.4493978875661565e-01  -1.0769938102977641e-01  -7.2330264413500702e-03  -1.0994212228848329e-03  -4.3022042822062692e-03  1.8696608790481747e-03  -1.5155911597945460e-03  4.4331170154062486e-03  -3.5918189178375519e-02  1.8326247860803180e-03  -1.9310087757097191e-02  -5.5101509422637196e-02  1.0665389192817127e-03  6.7821112147264896e-03  1.0157568449829237e-02  1.2334634615338539e-02  8.9809975961611856e-03  1.4296477319328604e-02  1.1056684822948562e-02  1.6127496315456853e-02  1.2928772334738901e-02  1.7717462795527255e-02  1.4642942561896657e-02  1.9185561510478320e-02  1.6257317214633697e-02  2.0473465730999570e-02  1.7655292053126798e-02  2.1651999042682224e-02  1.9053423974999515e-02  2.2824670405788956e-02  2.0299223414444335e-02  2.3785082355910606e-02  2.1472790280076984e-02  2.4616474753136396e-02  2.2407512338156015e-02  2.5373379622089930e-02  -7.5201913716214971e-02  -9.0562137372010798e-02  2.3363218034866573e-02  2.6008064019625177e-02  2.4266884653417874e-02  2.6612058072179125e-02  -1.4443584544538102e-01  -1.0911112610278222e-01  2.5068161853433107e-02  2.7105460569030182e-02  -1.2650696772332870e-01  -7.3184397890080216e-02  -1.4250428379015187e-01  -1.4366900295914847e-01  -1.5032270251450588e-01  -1.4456428104421923e-01  -1.5028863451239213e-01  -1.4478551473058676e-01  -1.5100047189571347e-01  -1.4449635527811175e-01  -1.4902491799887693e-01  -1.4314536309065118e-01  -1.4783474203012464e-01  -1.4131921173796730e-01  -1.4446767341157479e-01  -1.3872754059672890e-01  -1.4113031169361342e-01  -1.3584743576220581e-01  -1.3754208954817185e-01  -1.3260455870379240e-01  -1.3380672408175395e-01  -1.2920635402572753e-01  -1.2997228053284673e-01  -1.2566136625865157e-01  -1.2611804119730491e-01  -1.2205975616213312e-01  -1.2225255786146025e-01  -1.1846190581273976e-01  -1.1806153775944715e-01  -1.1455514941638070e-01  -1.1458531590073395e-01  -1.1097996625389132e-01  -1.1085147474773067e-01  -1.0736899369204088e-01  -1.0724755849099211e-01  -1.0379891936318662e-01  -1.0339318864786333e-01  -1.0015841346461959e-01  -1.3321095373152345e-01  -1.1052158016638614e-01  -1.2445927543933839e-01  -9.9673233118366331e-02  -9.6438316872640831e-02  -9.6672053376809980e-02  -9.3138124219694252e-02  -9.2677196562636135e-02  -8.9523620280851965e-02  -8.8870086820904526e-02  -8.5848355507630966e-02  -8.5077788907733723e-02  -8.2110668901107381e-02  -8.9246203307572977e-02  -1.5564391238639275e-01  -1.5007805394265236e-01  -8.1346596890055703e-02  -7.8318100626734569e-02  -7.9034333409374144e-02  -7.5253636144447356e-02  -7.4502057241803393e-02  -7.1493802973742707e-02  -7.0628425403297418e-02  -6.7705904122761534e-02  -1.4253021579458905e-01  -7.1981445400554678e-02  -6.6778021194828202e-02  -6.3932241402285539e-02  -1.3421919850745156e-01  -6.3042069023966224e-02  -6.0100988815492189e-02  -6.1260898359956309e-02  -5.7112433382003128e-02  -5.6161089420655612e-02  -5.3064970286729615e-02  -5.3971525303639890e-02  -4.9930124587383558e-02  -4.9034747096625482e-02  -4.5896153107766811e-02  -4.4988408821545367e-02  -4.1767901854281045e-02  -4.2699529679442086e-02  -3.8577223648123812e-02  -3.7612712198694387e-02  -3.4449154192471444e-02  -3.3520435859252580e-02  -3.0337684479071828e-02  -1.3946389117584124e-01  -1.1064137548850361e-01  -1.2589962589374662e-01  -2.9500605688936827e-02  -2.6257705584129813e-02  -2.7106220008018524e-02  -2.2874423255512137e-02  -2.2029043911859631e-02  -1.8648028984848110e-02  -2.3721555063620333e-02  2.5701247302058951e-02  2.7513931284915760e-02  2.6274589955526544e-02  2.7855052665505531e-02  2.6782826292468306e-02  2.8125397686801626e-02  -9.2048077087578145e-02  -4.5691013955107683e-02  -1.6061037539046855e-01  -1.7768838765480317e-02  -1.4456170244193798e-02  -1.0277656158625165e-01  2.3485083870992851e-02  2.7388166548272110e-02  1.5188426784445043e-02  2.7200561699019840e-02  2.8316124158163918e-02  2.9327604813097392e-02  2.9303424827579735e-02  2.8433141090813560e-02  2.9226896623511130e-02  2.8483108225008692e-02  2.9091732362464803e-02  2.8451632014732286e-02  2.8891026967285762e-02  2.8348308929279104e-02  2.8632166087387324e-02  2.8162079109927692e-02  2.8302296178473858e-02  2.7900552025269799e-02  2.7913298391416971e-02  2.7566432145902143e-02  2.7463287353779404e-02  2.7163426713145804e-02  2.6954258164135537e-02  2.6680574292162685e-02  2.6371478246253539e-02  2.6116805614712163e-02  2.5737359691462687e-02  2.5477176485566268e-02  2.5017233652642374e-02  2.4777655952922979e-02  2.4256859872467645e-02  2.3984366355832457e-02  2.3411533875650332e-02  2.3137060068046261e-02  2.2518863813206367e-02  2.9040075312574940e-02  -3.9576087295323595e-02  -7.3670973982578158e-02  -1.3453191041521271e-02  -1.0154400189004386e-02  -1.1147666453299201e-02  -6.6955226895844214e-03  -7.7329283371156679e-03  -3.1782730620578121e-03  -2.2596839070195725e-03  1.2765753198398469e-03  2.3161148527004322e-03  5.8241162859357489e-03  4.8819225476052211e-03  9.4170996152274037e-03  1.0218179645190560e-02  1.3917521878275786e-02  1.4705563232846707e-