<?xml version="1.0"?>
<VTKFile type="UnstructuredGrid"  version="0.1"  >
<UnstructuredGrid>
<Piece  NumberOfPoints="2886" NumberOfCells="5412">
<Points>
<DataArray  type="Float64"  NumberOfComponents="3"  format="ascii">0 0.1 0  0.98 0.1 0  1 0.1 0  1 0 0  1.5 0 0  3 0 0  3 0.3 0  0 0.3 0  0.01975375321854102 0.1 0  0.03918897458218897 0.1 0  0.05831079002627837 0.1 0  0.07712425666319796 0.1 0  0.0956343475259058 0.1 0  0.1138459546796227 0.1 0  0.1317638870668193 0.1 0  0.1493928840275937 0.1 0  0.1667376092280033 0.1 0  0.1838026357802664 0.1 0  0.2005924801287244 0.1 0  0.2171115811543574 0.1 0  0.2333643037107681 0.1 0  0.2493549444060462 0.1 0  0.2650877293306821 0.1 0  0.2805668058011438 0.1 0  0.2957962848620976 0.1 0  0.3107801766802674 0.1 0  0.3255224447361181 0.1 0  0.3400269848175519 0.1 0  0.3542976327080778 0.1 0  0.3683381609158136 0.1 0  0.3821522744564845 0.1 0  0.3957436316838916 0.1 0  0.4091158196437086 0.1 0  0.4222723742184605 0.1 0  0.4352167733293057 0.1 0  0.4479524348643424 0.1 0  0.4604827295467524 0.1 0  0.4728109659990664 0.1 0  0.4849404035409129 0.1 0  0.4968742471455402 0.1 0  0.508615651843175 0.1 0  0.520167721130924 0.1 0  0.5315335063628542 0.1 0  0.5427160117228604 0.1 0  0.5537181940261912 0.1 0  0.564542961924507 0.1 0  0.575193173270606 0.1 0  0.5856716438765114 0.1 0  0.5959811458006617 0.1 0  0.6061243988680743 0.1 0  0.6161040893285659 0.1 0  0.6259228503970299 0.1 0  0.6355832809287655 0.1 0  0.6450879281079505 0.1 0  0.6544393102991295 0.1 0  0.663639896558931 0.1 0  0.6726921201956305 0.1 0  0.6815983691630338 0.1 0  0.6903610031396646 0.1 0  0.6989823343332418 0.1 0  0.7074646404270378 0.1 0  0.7158101645005117 0.1 0  0.7240211149852543 0.1 0  0.7320996585612525 0.1 0  0.7400479319727645 0.1 0  0.7478680336617921 0.1 0  0.755562036504958 0.1 0  0.7631319665092091 0.1 0  0.7705798279317605 0.1 0  0.777907588066146 0.1 0  0.7851171851013118 0.1 0  0.7922105226004981 0.1 0  0.7991894774550319 0.1 0  0.8060558928136696 0.1 0  0.812811583201334 0.1 0  0.8194583352091183 0.1 0  0.8259979035038147 0.1 0  0.8324320194413813 0.1 0  0.8387623808293405 0.1 0  0.8449906627004957 0.1 0  0.8511185094880469 0.1 0  0.8571475426008311 0.1 0  0.8630793533568246 0.1 0  0.8689155114558531 0.1 0  0.8746575581239063 0.1 0  0.8803070109173519 0.1 0  0.885865363938836 0.1 0  0.8913340851680313 0.1 0  0.8967146206523592 0.1 0  0.9020083930695622 0.1 0  0.9072167995950768 0.1 0  0.9123412183131177 0.1 0  0.9173830029719022 0.1 0  0.9223434865647732 0.1 0  0.9272239785872722 0.1 0  0.9320257720706087 0.1 0  0.9367501330378739 0.1 0  0.9413983102716995 0.1 0  0.9459715351562933 0.1 0  0.9504710127113115 0.1 0  0.9548979346500661 0.1 0  0.9592534708344373 0.1 0  0.9635387708980176 0.1 0  0.9677549682252325 0.1 0  0.971903177251235 0.1 0  0.9759844952956497 0.1 0  0.9840000000000086 0.1 0  0.987999999999974 0.1 0  0.9919999999999393 0.1 0  0.9959999999999913 0.1 0  1 0.09591793123533533 0  1 0.09133596463859224 0  1 0.08619288104391448 0  1 0.08041996484521211 0  1 0.07394008421771697 0  1 0.06666666567302955 0  1 0.05850252932209174 0  1 0.04933859630113544 0  1 0.03905242821848202 0  1 0.02750659386753798 0  1 0.01454683679239736 0  1.015625 0 0  1.03125 0 0  1.046875 0 0  1.0625 0 0  1.078125 0 0  1.09375 0 0  1.109375 0 0  1.125 0 0  1.140625 0 0  1.15625 0 0  1.171875 0 0  1.1875 0 0  1.203125 0 0  1.21875 0 0  1.234375 0 0  1.25 0 0  1.265625 0 0  1.28125 0 0  1.296875 0 0  1.3125 0 0  1.328125 0 0  1.34375 0 0  1.359375 0 0  1.375 0 0  1.390625 0 0  1.40625 0 0  1.421875 0 0  1.4375 0 0  1.453125 0 0  1.46875 0 0  1.484375 0 0  1.515920751924515 0 0  1.531989369316721 0 0  1.54820720925872 0 0  1.564575665560501 0 0  1.581096138674279 0 0  1.597770029901263 0 0  1.614598783332311 0 0  1.631583831055205 0 0  1.64872661129721 0 0  1.666028606716533 0 0  1.683491276608443 0 0  1.701116134125304 0 0  1.718904673324128 0 0  1.736858414799339 0 0  1.754978895814663 0 0  1.773267661782904 0 0  1.791726281103402 0 0  1.810356325314689 0 0  1.8291593848892 0 0  1.848137076690385 0 0  1.867291007717254 0 0  1.886622833871288 0 0  1.90613418642363 0 0  1.925826753299799 0 0  1.945702199101513 0 0  1.96576223584749 0 0  1.986008569283268 0 0  2.006442931928877 0 0  2.02706707547783 0 0  2.047882750887917 0 0  2.06889175187935 0 0  2.090095860038271 0 0  2.111496891648636 0 0  2.133096679109554 0 0  2.154897066851056 0 0  2.176899916687499 0 0  2.199107102752146 0 0  2.22152053937028 0 0  2.244142122958061 0 0  2.266973806444078 0 0  2.290017523268154 0 0  2.313275249499252 0 0  2.336748971745516 0 0  2.360440702338606 0 0  2.384352453384031 0 0  2.408486280477412 0 0  2.432844240041185 0 0  2.457428414757088 0 0  2.482240901796653 0 0  2.507283830121838 0 0  2.532559332080812 0 0  2.558069568787417 0 0  2.583816724966441 0 0  2.60980299606584 0 0  2.636030600971886 0 0  2.662501790984011 0 0  2.689218818279327 0 0  2.716183964547616 0 0  2.743399548861297 0 0  2.77086788244719 0 0  2.798591312896326 0 0  2.826572223178268 0 0  2.854812990138617 0 0  2.883316031690714 0 0  2.912083780657189 0 0  2.941118704633482 0 0  2.970423276998917 0 0  3 0.02999999999994495 0  3 0.05999999999987042 0  3 0.089999999999783 0  3 0.119999999999701 0  3 0.149999999999619 0  3 0.179999999999692 0  3 0.2099999999997737 0  3 0.2399999999998511 0  3 0.2699999999999185 0  2.970138294777171 0.3 0  2.940375666438236 0.3 0  2.910711782853056 0.3 0  2.881146331305122 0.3 0  2.851678975030285 0.3 0  2.822309388626621 0.3 0  2.793037250095074 0.3 0  2.76386223529133 0.3 0  2.734784017903872 0.3 0  2.705802289276642 0.3 0  2.676916713794697 0.3 0  2.648126987654635 0.3 0  2.619432780406184 0.3 0  2.590833779385199 0.3 0  2.562329669847737 0.3 0  2.533920134950189 0.3 0  2.505604855727852 0.3 0  2.477383539822502 0.3 0  2.449255847639465 0.3 0  2.421221492569094 0.3 0  2.393280152486815 0.3 0  2.36543151914496 0.3 0  2.337675285481809 0.3 0  2.310011142385583 0.3 0  2.282438797441587 0.3 0  2.254957931061538 0.3 0  2.227568248063605 0.3 0  2.200269436651085 0.3 0  2.173061204949961 0.3 0  2.145943251515011 0.3 0  2.118915272469994 0.3 0  2.091976978084957 0.3 0  2.065128060700849 0.3 0  2.038368218849433 0.3 0  2.01169717777258 0.3 0  1.985114624111908 0.3 0  1.958620267850966 0.3 0  1.93221382054972 0.3 0  1.905894991850698 0.3 0  1.879663489459713 0.3 0  1.853519019126419 0.3 0  1.827461291053897 0.3 0  1.801490031354372 0.3 0  1.775604937580312 0.3 0  1.74980572560258 0.3 0  1.724092118631866 0.3 0  1.698463829173586 0.3 0  1.672920575782554 0.3 0  1.647462076974085 0.3 0  1.622088043536933 0.3 0  1.5967981978949 0.3 0  1.571592267767068 0.3 0  1.546469970305736 0.3 0  1.521431023814044 0.3 0  1.496475156230927 0.3 0  1.471602093687753 0.3 0  1.446811560490646 0.3 0  1.422103279101731 0.3 0  1.397476971708191 0.3 0  1.37293238939876 0.3 0  1.348469231419202 0.3 0  1.324087248732772 0.3 0  1.299786165921677 0.3 0  1.275565710847046 0.3 0  1.251425617644257 0.3 0  1.227365618676339 0.3 0  1.203385446174014 0.3 0  1.179484853067473 0.3 0  1.155663548773374 0.3 0  1.131921292279077 0.3 0  1.108257802159295 0.3 0  1.084672829009693 0.3 0  1.061166115303374 0.3 0  1.037737392995421 0.3 0  1.01438640299116 0.3 0  0.991112899770314 0.3 0  0.9679166155523955 0.3 0  0.944797284182564 0.3 0  0.921754678526042 0.3 0  0.8987885143602501 0.3 0  0.8758985548820624 0.3 0  0.8530845484099929 0.3 0  0.8303462351786988 0.3 0  0.8076833651172373 0.3 0  0.7850956864865304 0.3 0  0.7625829601354557 0.3 0  0.7401449314598274 0.3 0  0.717781337993959 0.3 0  0.6954919649675473 0.3 0  0.6732765357561226 0.3 0  0.6511348120768439 0.3 0  0.6290665642016573 0.3 0  0.6070715355430467 0.3 0  0.5851494825775325 0.3 0  0.5633001690203812 0.3 0  0.5415233562273221 0.3 0  0.5198187909431873 0.3 0  0.4981862401387795 0.3 0  0.4766254686134248 0.3 0  0.4551362360485234 0.3 0  0.4337182975262159 0.3 0  0.4123714223228037 0.3 0  0.3910953802377493 0.3 0  0.3698899313205595 0.3 0  0.3487548463710963 0.3 0  0.3276898864081783 0.3 0  0.3066948129116018 0.3 0  0.2857694003037476 0.3 0  0.2649134227095047 0.3 0  0.2441266417321288 0.3 0  0.2234088223399122 0.3 0  0.2027597568977288 0.3 0  0.1821792020676698 0.3 0  0.1616669305402443 0.3 0  0.1412227158799362 0.3 0  0.12084633013886 0.3 0  0.1005375673448281 0.3 0  0.08029618164595353 0.3 0  0.06012194778526769 0.3 0  0.04001466495039718 0.3 0  0.01997408913631205 0.3 0  0 0.2800000000000553 0  0 0.2600000000001105 0  0 0.2400000000001658 0  0 0.2200000000002211 0  0 0.2000000000002764 0  0 0.1800000000002244 0  0 0.1600000000001691 0  0 0.140000000000115 0  0 0.1200000000000564 0  1.13346801534201 0.01255848438672509 0  1.003577645172735 0.09351054173913405 0  0.9777559943702486 0.1034978156913738 0  0.9524533750752109 0.1040889939962738 0  0.9296242411226409 0.1041520033606139 0  0.9046110503652111 0.104409422380137 0  0.8777709649694228 0.1053360318797398 0  0.8483859145648608 0.1061007868330701 0  0.8162363822948977 0.1052777104363292 0  0.7893110024210437 0.1060761643971561 0  0.7587949382612539 0.1067265405088633 0  0.7280603867732535 0.1069398153264939 0  0.6947001989413015 0.1075609887579097 0  0.6590363283767549 0.1076715322596598 0  0.6210028614493155 0.1072970410408442 0  1.1953125 0.01353164693413185 0  1.258193991486058 0.01269648635163345 0  1.3201967268638 0.01407907077719561 0  1.383538555392096 0.01434101079053473 0  1.445312500000001 0.01303671693628424 0  1.508925448095738 0.01398525724792267 0  0.9939176689634008 0.1034638089837981 0  1.120967497222226 0.2796788492172345 0  1.572835902117391 0.01424132418857359 0  1.637573277451887 0.01212536916586023 0  1.709730776795181 0.01466855431023635 0  1.005631976950563 0.07074019818158772 0  1.784944696816299 0.01454708406461822 0  0.5805605730631225 0.1101465090472147 0  1.855621181165637 0.01550931272897607 0  0.5366111276616774 0.1096761308243709 0  1.935200147913231 0.01760344159641829 0  1.214922267975168 0.2799787705802257 0  1.31178773425331 0.2792
[...]
<PointData  Scalars="pressure"> 
<DataArray  type="Float64"  Name="pressure"  format="ascii">1.5859126373325624e-01  -1.6548474508360231e-01  -2.1628824721781267e-01  -1.6168657842637779e-01  -4.1275494204974089e-02  0.0000000000000000e+00  0.0000000000000000e+00  1.5859833685223920e-01  1.5266514145438950e-01  1.4683450960114675e-01  1.4109780190519719e-01  1.3545349375599380e-01  1.2990007210064758e-01  1.2443605790791699e-01  1.1906001640919131e-01  1.1377047801882377e-01  1.0856604708889732e-01  1.0344533546832768e-01  9.8406938958945561e-02  9.3449508459337943e-02  8.8571729654801964e-02  8.3772241282144527e-02  7.9049745988115996e-02  7.4403028557301853e-02  6.9830696711711479e-02  6.5331557425906975e-02  6.0904369991921010e-02  5.6547837386414217e-02  5.2260795830747789e-02  4.8042115894189573e-02  4.3890453165499707e-02  3.9804727131360504e-02  3.5783655295360269e-02  3.1826140259264210e-02  2.7931138104891780e-02  2.4097384446749495e-02  2.0323703727520129e-02  1.6609049701367971e-02  1.2952295432610514e-02  9.3522533186887694e-03  5.8079316760380941e-03  2.3181030839980682e-03  -1.1182516755953338e-03  -4.5023032967406824e-03  -7.8351216954727614e-03  -1.1117392647856064e-02  -1.4350916127718383e-02  -1.7536316053408323e-02  -2.0674699798740488e-02  -2.3767342987170904e-02  -2.6815262950063083e-02  -2.9818911045585712e-02  -3.2780324801123736e-02  -3.5699996428081193e-02  -3.8579046299263099e-02  -4.1418607711929067e-02  -4.4219672397289390e-02  -4.6983288624729481e-02  -4.9710637751363924e-02  -5.2402656202469353e-02  -5.5060312430990750e-02  -5.7684561810698497e-02  -6.0276977646181562e-02  -6.2837952537239339e-02  -6.5368756828902558e-02  -6.7870053340954681e-02  -7.0343855888439943e-02  -7.2790603777225252e-02  -7.5210547918373907e-02  -7.7605426998439392e-02  -7.9976815670328133e-02  -8.2324428623984494e-02  -8.4650328144059622e-02  -8.6955246987022949e-02  -8.9239479819460288e-02  -9.1504613808684687e-02  -9.3751553495117906e-02  -9.5981231168648290e-02  -9.8195390381958667e-02  -1.0039413523727278e-01  -1.0257795047648043e-01  -1.0474749936113259e-01  -1.0690622137371525e-01  -1.0905323482510310e-01  -1.1118922920604084e-01  -1.1331608538141226e-01  -1.1543420935338951e-01  -1.1754456303757321e-01  -1.1964825677848372e-01  -1.2174717164078695e-01  -1.2384177982429449e-01  -1.2593232008959154e-01  -1.2802114555021879e-01  -1.3010914757663236e-01  -1.3219744685493642e-01  -1.3428739904866191e-01  -1.3638020598431497e-01  -1.3847747698725332e-01  -1.4058087137829384e-01  -1.4269223635909517e-01  -1.4481349771284863e-01  -1.4694611557714093e-01  -1.4909129947490540e-01  -1.5123708299231853e-01  -1.5360921150387274e-01  -1.5479915044972384e-01  -1.5835609720924315e-01  -1.5564460817292450e-01  -1.6064720251986858e-01  -1.5811972090587625e-01  -2.0357077482633118e-01  -1.8210127035147333e-01  -1.7551671106646857e-01  -1.7072637338158511e-01  -1.6749303008765837e-01  -1.6506690706572016e-01  -1.6325019085640996e-01  -1.6191990909941015e-01  -1.6112191952092184e-01  -1.6092765221857439e-01  -1.6133463257457969e-01  -1.6212720495862717e-01  -1.6250261247319192e-01  -1.6229791360473050e-01  -1.6162827824762493e-01  -1.6058436593989298e-01  -1.5920997189122749e-01  -1.5749020454716417e-01  -1.5541235175664769e-01  -1.5300549277299516e-01  -1.5028700394403591e-01  -1.4726089723869587e-01  -1.4394090121696496e-01  -1.4033810067771366e-01  -1.3646454073049183e-01  -1.3234055557218791e-01  -1.2797902160974325e-01  -1.2339230087377077e-01  -1.1859864716057673e-01  -1.1361684319085029e-01  -1.0845742641512564e-01  -1.0315020957745881e-01  -9.7713310640710510e-02  -9.2162522145860085e-02  -8.6528442289530869e-02  -8.0829354408008564e-02  -7.5094535272676066e-02  -6.9346189521512072e-02  -6.3606769969121055e-02  -5.7907762581766123e-02  -5.2269896433956159e-02  -4.6719001653882451e-02  -3.5863746845006823e-02  -3.0568629462782500e-02  -2.5399592286211008e-02  -2.0390671682755435e-02  -1.5568729436016891e-02  -1.0935904356707058e-02  -6.5191139337202218e-03  -2.3236508990561355e-03  1.6018704613800310e-03  5.2812837559296040e-03  8.7140665692753676e-03  1.1879061223752931e-02  1.4778425979728182e-02  1.7419026281007159e-02  1.9804715851548610e-02  2.1940498528103602e-02  2.3841667303608052e-02  2.5508714318562262e-02  2.6955958222834784e-02  2.8213840636979154e-02  2.9270918877067526e-02  3.0157310814286711e-02  3.0886610465141198e-02  3.1466877821939153e-02  3.1919512984975459e-02  3.2248954820973945e-02  3.2486344000789334e-02  3.2622218974781077e-02  3.2677571284280435e-02  3.2657292168672067e-02  3.2569175422652100e-02  3.2422645884077492e-02  3.2226944374104310e-02  3.1986149649141607e-02  3.1700965078029809e-02  3.1378557263173866e-02  3.1019569340517947e-02  3.0626686175677237e-02  3.0200933779668489e-02  2.9742674233860563e-02  2.9252231623975458e-02  2.8729474093353358e-02  2.8173104949747133e-02  2.7583390596136490e-02  2.6957770539314439e-02  2.6294890566754485e-02  2.5595849956702003e-02  2.4855778730750840e-02  2.4072699388262619e-02  2.3251001148420422e-02  2.2381112793142588e-02  2.1470130999829983e-02  2.0507555147215892e-02  1.9502254884315260e-02  1.8446445520692030e-02  1.7336358564121686e-02  1.6182489505058510e-02  1.4970668845809261e-02  1.3712268664376942e-02  1.2401203610745584e-02  1.1036469668635958e-02  9.6180631015563255e-03  8.1481225283207802e-03  6.6298256168542688e-03  5.0537642153436028e-03  3.4375695445130728e-03  1.7650240907744689e-03  0.0000000000000000e+00  0.0000000000000000e+00  0.0000000000000000e+00  0.0000000000000000e+00  0.0000000000000000e+00  0.0000000000000000e+00  0.0000000000000000e+00  0.0000000000000000e+00  0.0000000000000000e+00  1.9151882567605126e-03  3.7028801723661565e-03  5.4628397259023458e-03  7.1697079702744693e-03  8.8272455931254559e-03  1.0434156438318234e-02  1.1989496090677058e-02  1.3491535011713312e-02  1.4937401009855387e-02  1.6324868824189067e-02  1.7649924070441889e-02  1.8910071127283379e-02  2.0100236377402617e-02  2.1217412469233424e-02  2.2256762712502962e-02  2.3211691430628997e-02  2.4081813835510425e-02  2.4856000013881416e-02  2.5529592956940943e-02  2.6096448468676176e-02  2.6549710980979864e-02  2.6882751777769373e-02  2.7089915727842633e-02  2.7160447383540363e-02  2.7092774586875444e-02  2.6875158050028793e-02  2.6505450231584821e-02  2.5972318604665767e-02  2.5270671840390335e-02  2.4397872636571553e-02  2.3343216679094194e-02  2.2101252245884304e-02  2.0686921748822227e-02  1.9085904052966441e-02  1.7272256883802208e-02  1.5286131964149394e-02  1.3104373963266849e-02  1.0727762202075854e-02  8.1577818819842437e-03  5.4020775394178462e-03  2.4517716661718362e-03  -6.7929517043813041e-04  -3.9995390351575963e-03  -7.4983228658632144e-03  -1.1186805028478833e-02  -1.5049066703404057e-02  -1.9086311830193329e-02  -2.3289340795397285e-02  -2.7661345541312856e-02  -3.2188172751414751e-02  -3.6866870571601526e-02  -4.1685785674285998e-02  -4.6631310720790915e-02  -5.1694605664742391e-02  -5.6859812063132432e-02  -6.2103106632652685e-02  -6.7365111609997835e-02  -7.2692429893156774e-02  -7.7999718733837653e-02  -8.3227346925218382e-02  -8.8379400061841945e-02  -9.3384303450262246e-02  -9.8222843354109454e-02  -1.0278918269812949e-01  -1.0707690416655949e-01  -1.1097674719981458e-01  -1.1447687198129489e-01  -1.1746686279122610e-01  -1.1995118745446175e-01  -1.2179785284658289e-01  -1.2302246411671756e-01  -1.2355362043455050e-01  -1.2326390232894643e-01  -1.2232512463466792e-01  -1.2060389278288546e-01  -1.1810926737042367e-01  -1.1495972045409643e-01  -1.1117985364618778e-01  -1.0689571217030142e-01  -1.0217676009841792e-01  -9.7023744574346371e-02  -9.1572385733704534e-02  -8.5861916415996387e-02  -7.9984378180446070e-02  -7.3944378986732978e-02  -6.7769837132934052e-02  -6.1512771750764993e-02  -5.5186180651905913e-02  -4.8801143298680516e-02  -4.2381069958110931e-02  -3.5931046285935277e-02  -2.9469240615987765e-02  -2.2998553793411192e-02  -1.6521558063323363e-02  -1.0049574650096036e-02  -3.5838298678659937e-03  2.8744629825612606e-03  9.3218672533276863e-03  1.5755320056102428e-02  2.2173678141138315e-02  2.8576426668167343e-02  3.4962055104772689e-02  4.1330376064672082e-02  4.7679805091414965e-02  5.4010690486186168e-02  6.0322319702498940e-02  6.6614425645665248e-02  7.2886915358172877e-02  7.9139486239745233e-02  8.5372090257222380e-02  9.1584694141508743e-02  9.7777204136260232e-02  1.0394959566225140e-01  1.1010187014707924e-01  1.1623403996994809e-01  1.2234608541119105e-01  1.2843807710899327e-01  1.3451003675004830e-01  1.4056199403124589e-01  1.4659400336127465e-01  1.5260610044752176e-01  1.5859830951239945e-01  1.5859801547320401e-01  1.5859729746416273e-01  1.5859617043762733e-01  1.5859480150804925e-01  1.5859343116618535e-01  1.5859230178425979e-01  1.5859157899040219e-01  1.5859128600627606e-01  -1.5384614383205059e-01  -1.8660505460439553e-01  -1.5732132622276829e-01  -1.4378197136891560e-01  -1.3334192649952248e-01  -1.2287025431229595e-01  -1.1242849441153606e-01  -1.0165829040601965e-01  -9.0441635607643567e-02  -8.1394378594924752e-02  -7.1411619330217391e-02  -6.1574763551941039e-02  -5.1079036879255184e-02  -4.0007235383224773e-02  -2.8319899368969018e-02  -1.4199741580596770e-01  -1.2556083212073707e-01  -1.0594205106290083e-01  -8.3616670713182323e-02  -6.1025690468053749e-02  -3.8596546180775834e-02  -1.6981315750063886e-01  -1.2183318671753801e-01  -1.8367298924737679e-02  -1.3004450861388462e-03  1.2916664788583158e-02  -1.6697201132290193e-01  2.2827944001744833e-02  -1.5987948739084580e-02  2.8357833118293138e-02  -2.6581370538236236e-03  3.1469177797955106e-02  -1.1216450047337156e-01  -9.5170858222939025e-02  3.2531299816869190e-02  -7.4910900161057253e-02  1.1152562370398167e-02  -4.8759459874843980e-02  3.2236669005278280e-02  2.6012827723544064e-02  -1.5941289596339020e-01  3.1127865311986920e-02  -2.5243365014114172e-02  -1.2233214006377914e-01  4.1415439249585080e-02  2.9446821667927080e-02  -2.2820998003978943e-03  5.8913033911328620e-02  6.6440383157743794e-03  2.7205912095004343e-02  1.4295199166704313e-02  7.6204006719302497e-02  -1.1624221589931812e-01  2.4477694070256503e-02  1.9874825054030879e-02  -1.0442740519697834e-01  2.3877438340038980e-02  2.0969047365946396e-02  -8.8712972569683982e-02  9.6404104144761152e-02  1.1042117604720203e-01  -1.3008286613118487e-02  1.7860760903986847e-02  1.4168534802956569e-02  2.6167637329339535e-02  -7.1063498074310422e-02  2.7021045951518313e-02  -1.5014298997254830e-01  -4.6033227840885489e-02  2.6223736731931607e-02  1.2787294404910143e-01  -2.6272341671879001e-02  1.0298794273321010e-02  2.3579852755011132e-02  -6.6960143776309943e-03  1.9131608770289660e-02  2.0591047056971647e-02  5.0845869193592304e-02  1.6929264479313044e-02  6.9806957036478212e-02  8.8584385431994456e-02  1.2696890685963424e-02  1.2018439271368953e-01  1.6048682060073782e-03  1.5301483186469214e-01  -1.6211969182289895e-01  8.0944447910341125e-03  5.7197801250077921e-03  1.3798700962166829e-01  -1.7352811822109571e-01  -1.6146981788371192e-01  -1.1810582239510790e-01  -5.8257075463724640e-02  5.6043033496002859e-03  3.1437046442639983e-02  1.3832718480307732e-01  -3.9393150992558343e-02  -6.4015505255716393e-02  -8.5175354942712680e-02  -1.0427329929696708e-01  8.6466465653720098e-02  2.6884853939968263e-02  6.7293329023992848e-02  1.0082595651538814e-01  2.5105950720773835e-02  2.2809045526236929e-02  4.9591481789249478e-02  2.5837991604036215e-02  2.8408484222757116e-02  3.4054120626580135e-02  3.0354479396144815e-02  3.1766847720624665e-02  3.2514145186069175e-02  3.2233598168558163e-02  -2.8348976325565232e-02  1.8464638611036390e-02  3.0222097183213340e-02  2.5928278217046744e-02  4.0798071549520169e-03  1.8486256717904107e-02  6.6202641496612268e-03  -8.9663429383003701e-03  1.3387932046849921e-03  -9.8402745364571161e-03  -2.1774040332563423e-02  1.5335469137042251e-01  -3.3930853124690817e-02  -4.5613053784269879e-02  -5.6388098321676260e-02  -6.6732489571463230e-02  -7.6483231483458314e-02  -8.5728969942434008e-02  -1.4839061040237991e-01  -9.7132413582660601e-02  -1.0803263432917144e-01  -1.1866851208584163e-01  -1.3433952747082623e-01  -1.2922342607777676e-01  -9.5271897535022201e-02  -1.1565020228551677e-01  -7.3293334500271562e-02  -4.9805781774124119e-02  -1.3964117317202904e-01  -1.5856617142507667e-01  1.6830583752512657e-03  1.5285798247897786e-01  4.5120005000656637e-03  -1.6189852617995212e-01  1.5360664210927308e-01  1.3651331049883463e-03  1.4950231995064392e-01  -1.6186681836056763e-01  -1.6152852053834912e-01  -1.6106943762094092e-01  -1.6156953872911131e-01  -1.6109279152654052e-01  -1.6192105730672307e-01  -1.6126321105885330e-01  -1.6237599850970175e-01  -1.6154757858843496e-01  -1.6269838427153685e-01  -1.6175124455636064e-01  -1.6262550395721861e-01  -1.6148325522294388e-01  -1.6199349497575408e-01  -1.6071413851114091e-01  -1.6090580982383140e-01  -1.5945156717459627e-01  -1.5942081664745120e-01  -1.5779798027716649e-01  -1.5736761685239345e-01  -1.5544490245521442e-01  -1.5904124863896049e-01  -1.5597592590566087e-01  -1.5323674700628290e-01  -1.5630135932187450e-01  -1.5824097347244562e-01  -1.5353662109346464e-01  -1.5065802855497878e-01  -1.5088008298643782e-01  -1.4763865324665743e-01  -1.4774345539631564e-01  -1.4418333393147995e-01  -1.4420603264878284e-01  -1.4057545631759513e-01  -1.4026485892500626e-01  -1.3590679543866419e-01  -1.3570338816978370e-01  -1.3152494322240316e-01  -1.3089996703393059e-01  -1.2656231389285930e-01  -1.2569963594380482e-01  -1.2127511166163915e-01  -1.2018829921837003e-01  -1.1572460551515930e-01  -1.1437423975135383e-01  -1.0994072161638284e-01  -1.0829140561850187e-01  -1.0393861759222842e-01  -1.0200423211620485e-01  -9.7797934484126603e-02  -9.5526326617434765e-02  -9.1556171942379819e-02  -8.8831367724597571e-02  -1.5441219933878861e-01  -1.5615719751845267e-01  -8.5230019579947622e-02  -8.2083148657410634e-02  -7.8901989868383121e-02  -7.5761220025391429e-02  -7.2664529704715458e-02  -6.9176608837064515e-02  -6.6524827156400054e-02  -6.2713816109543144e-02  -1.4953424396717094e-01  -6.0596145353071312e-02  -5.6364731093548226e-02  -5.4578828727676797e-02  -5.0146024994126376e-02  -4.8974768594386479e-02  -4.4207466812899977e-02  -1.5152853565309471e-01  -1.5339417770909577e-01  -1.6312501023207543e-01  -4.3509872219583245e-02  -3.8462958200361733e-02  -3.8320071417976789e-02  -3.2999556067340070e-02  -3.3386016601952020e-02  -2.7849090369132360e-02  -1.5950175493800234e-01  -2.8725996935433307e-02  -2.2979276938634333e-02  -1.3985843173289317e-01  -2.4325885325223073e-02  -1.8437495258475899e-02  -2.0217611334559599e-02  -1.4216249987708608e-02  -1.6319348360014731e-02  -1.0306285201407426e-02  -1.6008092499201482e-01  -1.2644971363916019e-01  -1.2754260899873044e-02  -6.7087753208795618e-03  -1.4769002436105202e-01  -1.4882138658975202e-01  -1.4617538633165014e-01  -1.1060854846707908e-01  -9.3802901097420916e-03  -3.2634530979475996e-03  -6.3485588979273234e-03  -1.7111451302094491e-04  -3.4684655705977561e-03  2.5061828006385702e-03  -3.9273552960404856e-02  -4.8879623462809354e-04  -2.2357944849172463e-02  -5.8596118159943103e-02  -8.0063803990762538e-04  4.9601714114367798e-03  8.2596517236307263e-03  1.0558946136198699e-02  7.2556331525276754e-03  1.2632870936358296e-02  9.4201312684972973e-03  1.4568602294478523e-02  1.1373827423028086e-02  1.6254327880643654e-02  1.3163048101809115e-02  1.7807601124694039e-02  1.4846916582295200e-02  1.9172578010051646e-02  1.6306999323159658e-02  2.0419794552977693e-02  1.7766200164393849e-02  2.1659351353483351e-02  1.9069193016148681e-02  2.2677274005861444e-02  2.0296961629283836e-02  2.3562146204486163e-02  2.1279500306693917e-02  2.4367959535685258e-02  -7.8654301365371923e-02  -9.3600962959409506e-02  2.2284528390687626e-02  2.5048441040514163e-02  2.3237742592897671e-02  2.5695908469587161e-02  -1.4699969146826047e-01  -1.1222659668576512e-01  2.4087010809284670e-02  2.6231136658267727e-02  -1.2936029639943616e-01  -7.6273034783368346e-02  -1.4294216988838496e-01  -1.4363524955464793e-01  -1.5025780742657199e-01  -1.4394054114445548e-01  -1.4943978509471245e-01  -1.4351031114588725e-01  -1.4926632288373581e-01  -1.4252507942638812e-01  -1.4649906629613471e-01  -1.4054079252933535e-01  -1.4459618021858797e-01  -1.3817409050459861e-01  -1.4069954162746115e-01  -1.3517169096391998e-01  -1.3701401386725962e-01  -1.3199770244654432e-01  -1.3322468690537062e-01  -1.2856917396431536e-01  -1.2938745655250811e-01  -1.2506525391805792e-01  -1.2551940766443750e-01  -1.2146863723397726e-01  -1.2167003756784329e-01  -1.1784861846167684e-01  -1.1783295910597093e-01  -1.1425350849252763e-01  -1.1369081297194336e-01  -1.1037970471696004e-01  -1.1059108812349594e-01  -1.0697944198243975e-01  -1.0669571745428787e-01  -1.0336962056941423e-01  -1.0310333346581348e-01  -9.9803841530232973e-02  -9.9282528553118615e-02  -9.6178205119300031e-02  -1.2996572454758776e-01  -1.0673034089491509e-01  -1.2058208538425774e-01  -9.5594324534616637e-02  -9.2474385449254737e-02  -9.2824943209800267e-02  -8.9290808843993416e-02  -8.8730162458944398e-02  -8.5675218603198655e-02  -8.4941384450408663e-02  -8.2005407392370597e-02  -8.1168249020771646e-02  -7.8279601598377796e-02  -8.5501505418986767e-02  -1.5449921549621054e-01  -1.4603297474822458e-01  -7.7456245092154652e-02  -7.4496765836153347e-02  -7.5280448021195087e-02  -7.1501811745716307e-02  -7.0690073083894564e-02  -6.7741769013393835e-02  -6.6827136895640279e-02  -6.3957164693832877e-02  -1.3784526192599822e-01  -6.8292047443795065e-02  -6.2987685537141250e-02  -6.0186920917851557e-02  -1.2948475456261316e-01  -5.9262396619869130e-02  -5.6361502048595497e-02  -5.7560235034819773e-02  -5.3412850133002655e-02  -5.2427042103739933e-02  -4.9365315578308734e-02  -5.0311060954948077e-02  -4.6264197250797841e-02  -4.5335701939897138e-02  -4.2226463598730522e-02  -4.1290922256505012e-02  -3.8095833037014325e-02  -3.9057219100066473e-02  -3.4928949365355927e-02  -3.3939523283514933e-02  -3.0796717086586663e-02  -2.9847504691431118e-02  -2.6682776602909748e-02  -1.3847222967649722e-01  -1.0634981927271668e-01  -1.2128129793739448e-01  -2.5828639233964373e-02  -2.2601309312147558e-02  -2.3468123136305641e-02  -1.9232696450091156e-02  -1.8372157084362455e-02  -1.5003542376647789e-02  -2.0098429114831749e-02  2.4762166553334762e-02  2.6677875200229323e-02  2.5377646221726186e-02  2.7056910387775465e-02  2.5927614584567174e-02  2.7363724805877739e-02  -8.8028791536032200e-02  -4.8509626211422179e-02  -1.6294430163110091e-01  -1.4112037252810921e-02  -1.0810130064777625e-02  -9.8585521130117607e-02  2.2206074484833901e-02  2.6440600525734947e-02  1.3324832002934746e-02  2.6386159371790757e-02  2.7589473692158698e-02  2.8654006691585732e-02  2.8659533354706210e-02  2.7740325872868930e-02  2.8612342788223014e-02  2.7823800274474321e-02  2.8505938258281419e-02  2.7824577942413983e-02  2.8332137431817370e-02  2.7753003487289242e-02  2.8100154429229675e-02  2.7597472197729345e-02  2.7796374199571539e-02  2.7365561574325233e-02  2.7432997089407024e-02  2.7060917276114361e-02  2.7008029406571470e-02  2.6686855700614416e-02  2.6523906402792154e-02  2.6232950250121477e-02  2.5965342207390180e-02  2.5697202543876963e-02  2.5355417902165802e-02  2.5084317989958020e-02  2.4658495479458201e-02  2.4411479732182082e-02  2.3921455692251580e-02  2.3644738331960978e-02  2.3098716795002340e-02  2.2821692194183341e-02  2.2228396325942344e-02  2.8268727005634247e-02  -3.5957670865391068e-02  -6.9811382809964323e-02  -9.7970428121211157e-03  -6.5075787034177815e-03  -7.5117604210907258e-03  -3.0575090458623199e-03  -4.1061148937837312e-03  4.5183724648934794e-04  1.3798140561843313e-03  4.9090977269090298e-03  5.9564477738053220e-03  9.4583890136615868e-03  8.5084558184147733e-03  1.3046025972869557e-02  1.3853557072186294e-02  1.7548220217907581e-02  1.8341482444001741