<?xml version="1.0"?>
<VTKFile type="UnstructuredGrid"  version="0.1"  >
<UnstructuredGrid>
<Piece  NumberOfPoints="2886" NumberOfCells="5412">
<Points>
<DataArray  type="Float64"  NumberOfComponents="3"  format="ascii">0 0.1 0  0.98 0.1 0  1 0.1 0  1 0 0  1.5 0 0  3 0 0  3 0.3 0  0 0.3 0  0.01975375321854102 0.1 0  0.03918897458218897 0.1 0  0.05831079002627837 0.1 0  0.07712425666319796 0.1 0  0.0956343475259058 0.1 0  0.1138459546796227 0.1 0  0.1317638870668193 0.1 0  0.1493928840275937 0.1 0  0.1667376092280033 0.1 0  0.1838026357802664 0.1 0  0.2005924801287244 0.1 0  0.2171115811543574 0.1 0  0.2333643037107681 0.1 0  0.2493549444060462 0.1 0  0.2650877293306821 0.1 0  0.2805668058011438 0.1 0  0.2957962848620976 0.1 0  0.3107801766802674 0.1 0  0.3255224447361181 0.1 0  0.3400269848175519 0.1 0  0.3542976327080778 0.1 0  0.3683381609158136 0.1 0  0.3821522744564845 0.1 0  0.3957436316838916 0.1 0  0.4091158196437086 0.1 0  0.4222723742184605 0.1 0  0.4352167733293057 0.1 0  0.4479524348643424 0.1 0  0.4604827295467524 0.1 0  0.4728109659990664 0.1 0  0.4849404035409129 0.1 0  0.4968742471455402 0.1 0  0.508615651843175 0.1 0  0.520167721130924 0.1 0  0.5315335063628542 0.1 0  0.5427160117228604 0.1 0  0.5537181940261912 0.1 0  0.564542961924507 0.1 0  0.575193173270606 0.1 0  0.5856716438765114 0.1 0  0.5959811458006617 0.1 0  0.6061243988680743 0.1 0  0.6161040893285659 0.1 0  0.6259228503970299 0.1 0  0.6355832809287655 0.1 0  0.6450879281079505 0.1 0  0.6544393102991295 0.1 0  0.663639896558931 0.1 0  0.6726921201956305 0.1 0  0.6815983691630338 0.1 0  0.6903610031396646 0.1 0  0.6989823343332418 0.1 0  0.7074646404270378 0.1 0  0.7158101645005117 0.1 0  0.7240211149852543 0.1 0  0.7320996585612525 0.1 0  0.7400479319727645 0.1 0  0.7478680336617921 0.1 0  0.755562036504958 0.1 0  0.7631319665092091 0.1 0  0.7705798279317605 0.1 0  0.777907588066146 0.1 0  0.7851171851013118 0.1 0  0.7922105226004981 0.1 0  0.7991894774550319 0.1 0  0.8060558928136696 0.1 0  0.812811583201334 0.1 0  0.8194583352091183 0.1 0  0.8259979035038147 0.1 0  0.8324320194413813 0.1 0  0.8387623808293405 0.1 0  0.8449906627004957 0.1 0  0.8511185094880469 0.1 0  0.8571475426008311 0.1 0  0.8630793533568246 0.1 0  0.8689155114558531 0.1 0  0.8746575581239063 0.1 0  0.8803070109173519 0.1 0  0.885865363938836 0.1 0  0.8913340851680313 0.1 0  0.8967146206523592 0.1 0  0.9020083930695622 0.1 0  0.9072167995950768 0.1 0  0.9123412183131177 0.1 0  0.9173830029719022 0.1 0  0.9223434865647732 0.1 0  0.9272239785872722 0.1 0  0.9320257720706087 0.1 0  0.9367501330378739 0.1 0  0.9413983102716995 0.1 0  0.9459715351562933 0.1 0  0.9504710127113115 0.1 0  0.9548979346500661 0.1 0  0.9592534708344373 0.1 0  0.9635387708980176 0.1 0  0.9677549682252325 0.1 0  0.971903177251235 0.1 0  0.9759844952956497 0.1 0  0.9840000000000086 0.1 0  0.987999999999974 0.1 0  0.9919999999999393 0.1 0  0.9959999999999913 0.1 0  1 0.09591793123533533 0  1 0.09133596463859224 0  1 0.08619288104391448 0  1 0.08041996484521211 0  1 0.07394008421771697 0  1 0.06666666567302955 0  1 0.05850252932209174 0  1 0.04933859630113544 0  1 0.03905242821848202 0  1 0.02750659386753798 0  1 0.01454683679239736 0  1.015625 0 0  1.03125 0 0  1.046875 0 0  1.0625 0 0  1.078125 0 0  1.09375 0 0  1.109375 0 0  1.125 0 0  1.140625 0 0  1.15625 0 0  1.171875 0 0  1.1875 0 0  1.203125 0 0  1.21875 0 0  1.234375 0 0  1.25 0 0  1.265625 0 0  1.28125 0 0  1.296875 0 0  1.3125 0 0  1.328125 0 0  1.34375 0 0  1.359375 0 0  1.375 0 0  1.390625 0 0  1.40625 0 0  1.421875 0 0  1.4375 0 0  1.453125 0 0  1.46875 0 0  1.484375 0 0  1.515920751924515 0 0  1.531989369316721 0 0  1.54820720925872 0 0  1.564575665560501 0 0  1.581096138674279 0 0  1.597770029901263 0 0  1.614598783332311 0 0  1.631583831055205 0 0  1.64872661129721 0 0  1.666028606716533 0 0  1.683491276608443 0 0  1.701116134125304 0 0  1.718904673324128 0 0  1.736858414799339 0 0  1.754978895814663 0 0  1.773267661782904 0 0  1.791726281103402 0 0  1.810356325314689 0 0  1.8291593848892 0 0  1.848137076690385 0 0  1.867291007717254 0 0  1.886622833871288 0 0  1.90613418642363 0 0  1.925826753299799 0 0  1.945702199101513 0 0  1.96576223584749 0 0  1.986008569283268 0 0  2.006442931928877 0 0  2.02706707547783 0 0  2.047882750887917 0 0  2.06889175187935 0 0  2.090095860038271 0 0  2.111496891648636 0 0  2.133096679109554 0 0  2.154897066851056 0 0  2.176899916687499 0 0  2.199107102752146 0 0  2.22152053937028 0 0  2.244142122958061 0 0  2.266973806444078 0 0  2.290017523268154 0 0  2.313275249499252 0 0  2.336748971745516 0 0  2.360440702338606 0 0  2.384352453384031 0 0  2.408486280477412 0 0  2.432844240041185 0 0  2.457428414757088 0 0  2.482240901796653 0 0  2.507283830121838 0 0  2.532559332080812 0 0  2.558069568787417 0 0  2.583816724966441 0 0  2.60980299606584 0 0  2.636030600971886 0 0  2.662501790984011 0 0  2.689218818279327 0 0  2.716183964547616 0 0  2.743399548861297 0 0  2.77086788244719 0 0  2.798591312896326 0 0  2.826572223178268 0 0  2.854812990138617 0 0  2.883316031690714 0 0  2.912083780657189 0 0  2.941118704633482 0 0  2.970423276998917 0 0  3 0.02999999999994495 0  3 0.05999999999987042 0  3 0.089999999999783 0  3 0.119999999999701 0  3 0.149999999999619 0  3 0.179999999999692 0  3 0.2099999999997737 0  3 0.2399999999998511 0  3 0.2699999999999185 0  2.970138294777171 0.3 0  2.940375666438236 0.3 0  2.910711782853056 0.3 0  2.881146331305122 0.3 0  2.851678975030285 0.3 0  2.822309388626621 0.3 0  2.793037250095074 0.3 0  2.76386223529133 0.3 0  2.734784017903872 0.3 0  2.705802289276642 0.3 0  2.676916713794697 0.3 0  2.648126987654635 0.3 0  2.619432780406184 0.3 0  2.590833779385199 0.3 0  2.562329669847737 0.3 0  2.533920134950189 0.3 0  2.505604855727852 0.3 0  2.477383539822502 0.3 0  2.449255847639465 0.3 0  2.421221492569094 0.3 0  2.393280152486815 0.3 0  2.36543151914496 0.3 0  2.337675285481809 0.3 0  2.310011142385583 0.3 0  2.282438797441587 0.3 0  2.254957931061538 0.3 0  2.227568248063605 0.3 0  2.200269436651085 0.3 0  2.173061204949961 0.3 0  2.145943251515011 0.3 0  2.118915272469994 0.3 0  2.091976978084957 0.3 0  2.065128060700849 0.3 0  2.038368218849433 0.3 0  2.01169717777258 0.3 0  1.985114624111908 0.3 0  1.958620267850966 0.3 0  1.93221382054972 0.3 0  1.905894991850698 0.3 0  1.879663489459713 0.3 0  1.853519019126419 0.3 0  1.827461291053897 0.3 0  1.801490031354372 0.3 0  1.775604937580312 0.3 0  1.74980572560258 0.3 0  1.724092118631866 0.3 0  1.698463829173586 0.3 0  1.672920575782554 0.3 0  1.647462076974085 0.3 0  1.622088043536933 0.3 0  1.5967981978949 0.3 0  1.571592267767068 0.3 0  1.546469970305736 0.3 0  1.521431023814044 0.3 0  1.496475156230927 0.3 0  1.471602093687753 0.3 0  1.446811560490646 0.3 0  1.422103279101731 0.3 0  1.397476971708191 0.3 0  1.37293238939876 0.3 0  1.348469231419202 0.3 0  1.324087248732772 0.3 0  1.299786165921677 0.3 0  1.275565710847046 0.3 0  1.251425617644257 0.3 0  1.227365618676339 0.3 0  1.203385446174014 0.3 0  1.179484853067473 0.3 0  1.155663548773374 0.3 0  1.131921292279077 0.3 0  1.108257802159295 0.3 0  1.084672829009693 0.3 0  1.061166115303374 0.3 0  1.037737392995421 0.3 0  1.01438640299116 0.3 0  0.991112899770314 0.3 0  0.9679166155523955 0.3 0  0.944797284182564 0.3 0  0.921754678526042 0.3 0  0.8987885143602501 0.3 0  0.8758985548820624 0.3 0  0.8530845484099929 0.3 0  0.8303462351786988 0.3 0  0.8076833651172373 0.3 0  0.7850956864865304 0.3 0  0.7625829601354557 0.3 0  0.7401449314598274 0.3 0  0.717781337993959 0.3 0  0.6954919649675473 0.3 0  0.6732765357561226 0.3 0  0.6511348120768439 0.3 0  0.6290665642016573 0.3 0  0.6070715355430467 0.3 0  0.5851494825775325 0.3 0  0.5633001690203812 0.3 0  0.5415233562273221 0.3 0  0.5198187909431873 0.3 0  0.4981862401387795 0.3 0  0.4766254686134248 0.3 0  0.4551362360485234 0.3 0  0.4337182975262159 0.3 0  0.4123714223228037 0.3 0  0.3910953802377493 0.3 0  0.3698899313205595 0.3 0  0.3487548463710963 0.3 0  0.3276898864081783 0.3 0  0.3066948129116018 0.3 0  0.2857694003037476 0.3 0  0.2649134227095047 0.3 0  0.2441266417321288 0.3 0  0.2234088223399122 0.3 0  0.2027597568977288 0.3 0  0.1821792020676698 0.3 0  0.1616669305402443 0.3 0  0.1412227158799362 0.3 0  0.12084633013886 0.3 0  0.1005375673448281 0.3 0  0.08029618164595353 0.3 0  0.06012194778526769 0.3 0  0.04001466495039718 0.3 0  0.01997408913631205 0.3 0  0 0.2800000000000553 0  0 0.2600000000001105 0  0 0.2400000000001658 0  0 0.2200000000002211 0  0 0.2000000000002764 0  0 0.1800000000002244 0  0 0.1600000000001691 0  0 0.140000000000115 0  0 0.1200000000000564 0  1.13346801534201 0.01255848438672509 0  1.003577645172735 0.09351054173913405 0  0.9777559943702486 0.1034978156913738 0  0.9524533750752109 0.1040889939962738 0  0.9296242411226409 0.1041520033606139 0  0.9046110503652111 0.104409422380137 0  0.8777709649694228 0.1053360318797398 0  0.8483859145648608 0.1061007868330701 0  0.8162363822948977 0.1052777104363292 0  0.7893110024210437 0.1060761643971561 0  0.7587949382612539 0.1067265405088633 0  0.7280603867732535 0.1069398153264939 0  0.6947001989413015 0.1075609887579097 0  0.6590363283767549 0.1076715322596598 0  0.6210028614493155 0.1072970410408442 0  1.1953125 0.01353164693413185 0  1.258193991486058 0.01269648635163345 0  1.3201967268638 0.01407907077719561 0  1.383538555392096 0.01434101079053473 0  1.445312500000001 0.01303671693628424 0  1.508925448095738 0.01398525724792267 0  0.9939176689634008 0.1034638089837981 0  1.120967497222226 0.2796788492172345 0  1.572835902117391 0.01424132418857359 0  1.637573277451887 0.01212536916586023 0  1.709730776795181 0.01466855431023635 0  1.005631976950563 0.07074019818158772 0  1.784944696816299 0.01454708406461822 0  0.5805605730631225 0.1101465090472147 0  1.855621181165637 0.01550931272897607 0  0.5366111276616774 0.1096761308243709 0  1.935200147913231 0.01760344159641829 0  1.214922267975168 0.2799787705802257 0  1.31178773425331 0.2792
[...]
<PointData  Scalars="pressure"> 
<DataArray  type="Float64"  Name="pressure"  format="ascii">1.5393121975271876e-01  -1.6677409458038606e-01  -2.1143521334061635e-01  -1.5931063332675158e-01  -3.7792862074493914e-02  0.0000000000000000e+00  0.0000000000000000e+00  1.5393931626426016e-01  1.4800509800802428e-01  1.4217445669025722e-01  1.3643772541069960e-01  1.3079337847954939e-01  1.2523989978513514e-01  1.1977580864946917e-01  1.1439967144714847e-01  1.0911001168489086e-01  1.0390543421488529e-01  9.8784548539266215e-02  9.3745943344711299e-02  8.8788267005391247e-02  8.3910204504952998e-02  7.9110384134768910e-02  7.4387504277558691e-02  6.9740353899100688e-02  6.5167517750234064e-02  6.0667804253145968e-02  5.6239965233043643e-02  5.1882685122698190e-02  4.7594798268791975e-02  4.3375175548159964e-02  3.9222438902814488e-02  3.5135510258936471e-02  3.1113077276875314e-02  2.7154037285759360e-02  2.3257346218745274e-02  1.9421705159966111e-02  1.5645914750271984e-02  1.1928920956581539e-02  8.2695752339355059e-03  4.6666572228521337e-03  1.1191686638611714e-03  -2.3741608354813032e-03  -5.8143656232236933e-03  -9.2026554974809008e-03  -1.2540126922362539e-02  -1.5827438907551467e-02  -1.9066528144503322e-02  -2.2257986652128837e-02  -2.5402962335385401e-02  -2.8502797690303363e-02  -3.1558541014031077e-02  -3.4570595375769321e-02  -3.7541181272116191e-02  -4.0470752150795479e-02  -4.3360482391135595e-02  -4.6211563332283080e-02  -4.9025025972598592e-02  -5.1801968398909007e-02  -5.4543642565165695e-02  -5.7251022249597307e-02  -5.9925119637328106e-02  -6.2566934245268491e-02  -6.5178175616907197e-02  -6.7759202117388534e-02  -7.0311380628482273e-02  -7.2835382427657122e-02  -7.5333434363613477e-02  -7.7805955275468533e-02  -8.0253151013926535e-02  -8.2676939981708802e-02  -8.5079053949807262e-02  -8.7459089784283836e-02  -8.9819350239209728e-02  -9.2160606018929059e-02  -9.4483130445865898e-02  -9.6788692785310756e-02  -9.9078273326269908e-02  -1.0135289657684481e-01  -1.0361452575347176e-01  -1.0586324262495830e-01  -1.0809954919212461e-01  -1.1032419722023709e-01  -1.1254115446097794e-01  -1.1474936820435423e-01  -1.1694963819104813e-01  -1.1914415600606257e-01  -1.2133341653336588e-01  -1.2351857158963392e-01  -1.2570098324036078e-01  -1.2788294051588020e-01  -1.3006506732066322e-01  -1.3224779297492611e-01  -1.3443408097291723e-01  -1.3662520272549511e-01  -1.3882275547166600e-01  -1.4102873346740721e-01  -1.4324500192832354e-01  -1.4547404474248671e-01  -1.4771858366130514e-01  -1.4998179573350792e-01  -1.5226762358313958e-01  -1.5457842308015649e-01  -1.5692295472151449e-01  -1.5930537644671572e-01  -1.6173348344336499e-01  -1.6421619031643345e-01  -1.6942677788355681e-01  -1.7212369143840961e-01  -1.7609486862187174e-01  -1.7101095160639984e-01  -2.0038176750328618e-01  -1.7962648965409617e-01  -1.7313105859232170e-01  -1.6837465504942420e-01  -1.6514947852189349e-01  -1.6272345760051288e-01  -1.6090243062976148e-01  -1.5956432952728775e-01  -1.5875748535397510e-01  -1.5855509480050325e-01  -1.5895800848050839e-01  -1.5975206192864838e-01  -1.6012373275059888e-01  -1.5991180986520748e-01  -1.5923129121898777e-01  -1.5817224624391121e-01  -1.5677789190914987e-01  -1.5503260980908259e-01  -1.5292319479956529e-01  -1.5047888155965777e-01  -1.4771726335836399e-01  -1.4464246197644809e-01  -1.4126861584304720e-01  -1.3760734330937155e-01  -1.3367122428987974e-01  -1.2948142481006847e-01  -1.2505168043718895e-01  -1.2039522307723005e-01  -1.1553132167453774e-01  -1.1047984140876513e-01  -1.0525268739568773e-01  -9.9880375343267574e-02  -9.4382716374292228e-02  -8.8776448425194041e-02  -8.3093454277482437e-02  -7.7352740422899399e-02  -7.1585289080700207e-02  -6.5813820256580627e-02  -6.0061560671872384e-02  -5.4360726204818480e-02  -4.8732544883449191e-02  -4.3203147888747365e-02  -3.2427101585288512e-02  -2.7190303392416265e-02  -2.2091998401565033e-02  -1.7165655708375596e-02  -1.2436963483837833e-02  -7.9085655901560362e-03  -3.6045139642531259e-03  4.7047030194495381e-04  4.2681520142881695e-03  7.8142586003561859e-03  1.1110474003507733e-02  1.4136709521859650e-02  1.6896362676841317e-02  1.9397982442943294e-02  2.1646769624831964e-02  2.3648805241368778e-02  2.5420575153764367e-02  2.6963705400829679e-02  2.8292801106934239e-02  2.9439138281399560e-02  3.0391899064162339e-02  3.1181271808184457e-02  3.1821023853188281e-02  3.2319149764326920e-02  3.2697023671305767e-02  3.2958935138876488e-02  3.3135010388711333e-02  3.3216313477641625e-02  3.3222932386090545e-02  3.3159468322355501e-02  3.3033364899725914e-02  3.2853403416316387e-02  3.2628189027319676e-02  3.2361335751447451e-02  3.2053378469677693e-02  3.1710794410728840e-02  3.1333984211652365e-02  3.0925166189447122e-02  3.0485082544099214e-02  3.0013822664810817e-02  2.9511426229079193e-02  2.8977520893188051e-02  2.8410685714555753e-02  2.7810872381555905e-02  2.7175542059298795e-02  2.6503231964722252e-02  2.5794679716939873e-02  2.5045162090477333e-02  2.4252943481531293e-02  2.3421618742222438e-02  2.2542499692712159e-02  2.1621708625788789e-02  2.0649855665228645e-02  1.9634633578569847e-02  1.8569013805700665e-02  1.7449377263329006e-02  1.6285409023672880e-02  1.5064160910697478e-02  1.3795831939413382e-02  1.2474969106116833e-02  1.1100439313832679e-02  9.6727675935657995e-03  8.1937069765311375e-03  6.6661629227538800e-03  5.0805618853835234e-03  3.4552259911783002e-03  1.7742410065491646e-03  0.0000000000000000e+00  0.0000000000000000e+00  0.0000000000000000e+00  0.0000000000000000e+00  0.0000000000000000e+00  0.0000000000000000e+00  0.0000000000000000e+00  0.0000000000000000e+00  0.0000000000000000e+00  1.9198956960408005e-03  3.7136876591738503e-03  5.4819076963126103e-03  7.1976277194032772e-03  8.8647244745893340e-03  1.0482064349073074e-02  1.2048853224577544e-02  1.3563419330148006e-02  1.5022906536906690e-02  1.6425241230338936e-02  1.7766468695673731e-02  1.9044249192205747e-02  2.0253585599916621e-02  2.1391590561016607e-02  2.2453500181964074e-02  2.3432984387064561e-02  2.4329651613880610e-02  2.5132541164087967e-02  2.5837079894877501e-02  2.6437225874288140e-02  2.6926247293373111e-02  2.7297462757009346e-02  2.7545361674967000e-02  2.7659371497463319e-02  2.7637311528700255e-02  2.7468001806287678e-02  2.7148952886544991e-02  2.6668709977697862e-02  2.6022099347982868e-02  2.5206296008102900e-02  2.4210560585097327e-02  2.3029269187097506e-02  2.1676985896300259e-02  2.0138833562062690e-02  1.8389395405751352e-02  1.6468693915277499e-02  1.4352317032749742e-02  1.2041954422830096e-02  9.5383003229731651e-03  6.8494015336440471e-03  3.9657747405496624e-03  9.0112995195604391e-04  -2.3525265013250724e-03  -5.7849435726714136e-03  -9.4068637717511956e-03  -1.3203700112206366e-02  -1.7175964026278630e-02  -2.1315971156483076e-02  -2.5625904302010984e-02  -3.0092900789088238e-02  -3.4714770078711057e-02  -3.9480499975070686e-02  -4.4378068191715359e-02  -4.9399273469757692e-02  -5.4528974639738902e-02  -5.9745750894097879e-02  -6.4995689245624044e-02  -7.0318676859674703e-02  -7.5637078024970203e-02  -8.0895818844791689e-02  -8.6097123027872036e-02  -9.1173741074725742e-02  -9.6108383595553903e-02  -1.0079897444597381e-01  -1.0524139087897293e-01  -1.0933021342412529e-01  -1.1305433109347510e-01  -1.1630779593882663e-01  -1.1909426054687745e-01  -1.2128359893595844e-01  -1.2288883778364261e-01  -1.2383419604273593e-01  -1.2398323057181429e-01  -1.2349984005333021e-01  -1.2223114012221950e-01  -1.2017213921737398e-01  -1.1742889137160563e-01  -1.1401308246147202e-01  -1.1005008589347894e-01  -1.0560818924993083e-01  -1.0068230624108813e-01  -9.5419778675853703e-02  -8.9862345678538652e-02  -8.4113161545123979e-02  -7.8176647021579546e-02  -7.2084109533375310e-02  -6.5894474069179712e-02  -5.9622454972145161e-02  -5.3280596572858933e-02  -4.6895581937804152e-02  -4.0473200667646897e-02  -3.4034204228288227e-02  -2.7581910633761544e-02  -2.1119262814356755e-02  -1.4659212081279962e-02  -8.2031702686414416e-03  -1.7525333855012936e-03  4.6887582366599932e-03  1.1117191387587603e-02  1.7531447623122788e-02  2.3930927837520464e-02  3.0313893820145699e-02  3.6680121386829724e-02  4.3027787003471291e-02  4.9357279477169898e-02  5.5667773014202816e-02  6.1958951683167229e-02  6.8230699325109459e-02  7.4482659870087009e-02  8.0714768005411802e-02  8.6926975487556749e-02  9.3119166015918436e-02  9.9291300910550898e-02  1.0544337195550890e-01  1.1157538350180710e-01  1.1768730309524560e-01  1.2377920265331516e-01  1.2985109633892691e-01  1.3590300837110555e-01  1.4193499231649759e-01  1.4794707846076199e-01  1.5393928496936007e-01  1.5393894838871025e-01  1.5393812649397026e-01  1.5393683639957917e-01  1.5393526939987540e-01  1.5393370078347579e-01  1.5393240799274824e-01  1.5393158062076964e-01  1.5393124524779289e-01  -1.5133677902620790e-01  -1.8383025050146407e-01  -1.6566436986686028e-01  -1.5118335116962506e-01  -1.4004615334004783e-01  -1.2906340595698121e-01  -1.1823716173278438e-01  -1.0716487182902432e-01  -9.5711393187420668e-02  -8.6520174029622962e-02  -7.6415554899689250e-02  -6.6488512559496199e-02  -5.5921734123492071e-02  -4.4795794136144290e-02  -3.3068249477980843e-02  -1.3929906142258774e-01  -1.2260313694380222e-01  -1.0271498504632164e-01  -8.0170792178424308e-02  -5.7490283371668824e-02  -3.5149298009254433e-02  -1.7908475749954222e-01  -1.2147390111726368e-01  -1.5195306051864288e-02  1.4464025443465466e-03  1.5108136121590801e-02  -1.6460719824949116e-01  2.4458941428906495e-02  -2.0707441942679615e-02  2.9548628831321418e-02  -7.3566523437151475e-03  3.2293064552746012e-02  -1.1063138404061292e-01  -9.3017048063263622e-02  3.3097983271483729e-02  -7.2554875716216050e-02  6.4681091185024471e-03  -4.6499574344572712e-02  3.2658785506911300e-02  2.1337884694123989e-02  -1.5698875554028838e-01  3.1454659392931170e-02  -2.3251671245395854e-02  -1.2328425373895330e-01  3.6746573877365539e-02  2.9714198108878518e-02  -6.7719291570616852e-04  5.4248219422977591e-02  8.0544961479208487e-03  2.7429092719840870e-02  1.5500969740733330e-02  7.1541458473259864e-02  -1.1848177987706525e-01  2.4663510283575173e-02  2.0891137185981120e-02  -1.0770267057603770e-01  2.4708640799946661e-02  2.1116046378866445e-02  -9.2628027922165013e-02  9.1742985321131260e-02  1.0576060105534234e-01  -1.1205517039874588e-02  1.7978262416386101e-02  1.4255411353791573e-02  2.6834876868202774e-02  -7.5329665094329507e-02  2.7495644830246257e-02  -1.5809595304049665e-01  -5.0525582515006558e-02  2.6583263314181576e-02  1.2321273596447667e-01  -3.0845343310081191e-02  1.0357704233086655e-02  2.3816543159938686e-02  -1.1310164440301194e-02  1.4491532058715999e-02  2.0756592536396407e-02  4.6193244650603038e-02  1.7039498712396267e-02  6.5151142427682843e-02  8.3926884574777830e-02  1.2764280110072130e-02  1.1552566429314759e-01  1.6127510486505694e-03  1.4835539140852244e-01  -1.5975502240433598e-01  8.1295326655336023e-03  5.7499162317339878e-03  1.3332804741892354e-01  -1.7110270407784975e-01  -1.5907802799968437e-01  -1.1708567584092359e-01  -6.2664029158019774e-02  9.7503102373666141e-04  2.6790553179815157e-02  1.3366708454229984e-01  -3.7223189174654718e-02  -6.1665815614570095e-02  -8.2877236624552000e-02  -1.0236307776139299e-01  8.1804766233747606e-02  2.7453451494218115e-02  6.2629771420490227e-02  9.6167809411387334e-02  2.5399505484067345e-02  2.2975486485449156e-02  4.4924794243535855e-02  2.6041160413061291e-02  2.8652876764836653e-02  2.9382714449775992e-02  3.0648596257725140e-02  3.2135235856791511e-02  3.3007466636421706e-02  3.2911251630651298e-02  -2.5014020770298552e-02  1.3785428224633691e-02  3.1215593723254612e-02  2.7329318389621861e-02  -6.1110886256733957e-04  2.0387818797042510e-02  9.0848160036139589e-03  -6.0040285015002326e-03  1.3445346003011980e-03  -1.4548950154188318e-02  -2.6505658515798964e-02  1.4869486885231620e-01  -3.8696877041737972e-02  -5.0426751931573852e-02  -6.1263970474353183e-02  -7.1690533148513522e-02  -8.1544872308194030e-02  -9.0919502767090946e-02  -1.4579505203457860e-01  -1.0253456264550743e-01  -1.1370669320739243e-01  -1.2469427954999988e-01  -1.3151817627660764e-01  -1.3570817984698239e-01  -9.1926008811824514e-02  -1.1254891994532183e-01  -6.9787795056739488e-02  -4.6289584383396983e-02  -1.4673565539561889e-01  -1.7140587939987686e-01  1.6902509932284872e-03  1.4819886601345328e-01  4.5287428846205562e-03  -1.5952053883431488e-01  1.4894661615681332e-01  1.3714053308171578e-03  1.4484330464828524e-01  -1.5948358564107640e-01  -1.5914281056975141e-01  -1.5867537752655125e-01  -1.5918309104749839e-01  -1.5869829098326707e-01  -1.5953377093190227e-01  -1.5886680422346977e-01  -1.5998555736023967e-01  -1.5914770290149355e-01  -1.6030151205503768e-01  -1.5934469234198168e-01  -1.6021963402497036e-01  -1.5906615486841108e-01  -1.5958010717384905e-01  -1.5828666713590758e-01  -1.5849698966241826e-01  -1.5702362166021830e-01  -1.5704101925507027e-01  -1.5539413049087816e-01  -1.5506964400315235e-01  -1.5309687860867879e-01  -1.5679894334728628e-01  -1.5352799620839727e-01  -1.5083823296589191e-01  -1.5421700379192899e-01  -1.5626423224731545e-01  -1.5105494608144440e-01  -1.4820864089501684e-01  -1.4835113665952457e-01  -1.4513565544076340e-01  -1.4516274119594966e-01  -1.4162773803638692e-01  -1.4156820912463086e-01  -1.3795304506283834e-01  -1.3756326089725268e-01  -1.3322651652844503e-01  -1.3293466878853533e-01  -1.2876804134314326e-01  -1.2806054331118483e-01  -1.2373670079804629e-01  -1.2278760317500563e-01  -1.1838322595903554e-01  -1.1720493164700600e-01  -1.1277006290612722e-01  -1.1132281237381246e-01  -1.0692825623683287e-01  -1.0517691959120093e-01  -1.0087821858514578e-01  -9.8835153501078993e-02  -9.4697877691692689e-02  -9.2318942976133911e-02  -8.8428941918238996e-02  -8.5579451603812751e-02  -1.5267224122695264e-01  -1.5463915126598810e-01  -8.2095507624726463e-02  -7.8823238153627143e-02  -7.5764214161686438e-02  -7.2498713351250257e-02  -6.9549484775227335e-02  -6.5929385845648766e-02  -6.3444499615374350e-02  -5.9499364358574974e-02  -1.4721719361526450e-01  -5.7561262389960219e-02  -5.3199087525744683e-02  -5.1639076077806774e-02  -4.7051174634233112e-02  -4.6081080306983081e-02  -4.1190257947998417e-02  -1.5026320337847435e-01  -1.5251119636133950e-01  -1.6072178010571703e-01  -4.0705601108931760e-02  -3.5539847191272428e-02  -3.5612123032922931e-02  -3.0183398620266734e-02  -3.0782681280300737e-02  -2.5148166756124486e-02  -1.5778916666648271e-01  -2.6232414258428486e-02  -2.0402039043276577e-02  -1.3737999296206263e-01  -2.1946038108282145e-02  -1.5988263849929709e-02  -1.7951464944179159e-02  -1.1896694156164666e-02  -1.4163762827396882e-02  -8.1168000071497083e-03  -1.5764744018146268e-01  -1.2375286981298525e-01  -1.0708919101771875e-02  -4.6463696328810072e-03  -1.4700188625564758e-01  -1.4859958818303123e-01  -1.4512432424973687e-01  -1.0772430943079797e-01  -7.4411252953232483e-03  -1.3257251760165503e-03  -4.5114657988303908e-03  1.6471222694272630e-03  -1.7269447813775924e-03  4.2138099657025394e-03  -3.6151222303164379e-02  1.5875155717989130e-03  -1.9572796827558272e-02  -5.5274001654101394e-02  8.5242710032600445e-04  6.5651051151688795e-03  9.9383345067843507e-03  1.2122254485317310e-02  8.7654431175928863e-03  1.4089657408187054e-02  1.0842031089576033e-02  1.5925045609168093e-02  1.2714510556233800e-02  1.7517858568982893e-02  1.4428867397199193e-02  1.8987815798680158e-02  1.6043757641932884e-02  2.0276770904791967e-02  1.7442244807709870e-02  2.1455876305010394e-02  1.8842089628293021e-02  2.2629753226797542e-02  2.0090204123741150e-02  2.3590839809851112e-02  2.1267041359427859e-02  2.4423200069843356e-02  2.2205301318827090e-02  2.5181598631524402e-02  -7.5301511071521957e-02  -9.0621355158207406e-02  2.3165655553579415e-02  2.5818277032104195e-02  2.4074427892567366e-02  2.6425073416795730e-02  -1.4437767132519677e-01  -1.0910482499617752e-01  2.4880947825356731e-02  2.6921484799668355e-02  -1.2646597283127542e-01  -7.3282737699483347e-02  -1.4283354965185763e-01  -1.4407233715271647e-01  -1.5070720492819326e-01  -1.4506239025650633e-01  -1.5080526220501481e-01  -1.4539063388057383e-01  -1.5166371983454030e-01  -1.4521727998093542e-01  -1.4982614431741398e-01  -1.4397385586171368e-01  -1.4875774037086634e-01  -1.4224015071909082e-01  -1.4548520102680637e-01  -1.3971987270014080e-01  -1.4221035012469266e-01  -1.3689121755619507e-01  -1.3865919986837663e-01  -1.3368152791344870e-01  -1.3494358749340457e-01  -1.3030273880128820e-01  -1.3111697296641669e-01  -1.2676793585101945e-01  -1.2726374106193916e-01  -1.2317068647024262e-01  -1.2339510886282952e-01  -1.1957348157465136e-01  -1.1919750224193212e-01  -1.1566259706290680e-01  -1.1566616406154225e-01  -1.1206242236588970e-01  -1.1195646219253015e-01  -1.0845170548304250e-01  -1.0835106625484772e-01  -1.0488123445893481e-01  -1.0449193799499129e-01  -1.0123871134331479e-01  -1.3416247107635218e-01  -1.1157394165957565e-01  -1.2551837603057342e-01  -1.0076743011081626e-01  -9.7516326385272009e-02  -9.7733854069908185e-02  -9.4199990800192340e-02  -9.3752784025987343e-02  -9.0585613554420089e-02  -8.9943030903893481e-02  -8.6909532772991460e-02  -8.6147972126557559e-02  -8.3170141132878336e-02  -9.0294083989145471e-02  -1.5619451980037616e-01  -1.5113223113935248e-01  -8.2414027891031791e-02  -7.9376152996016996e-02  -8.0083426934166507e-02  -7.6302391009868686e-02  -7.5558740316530787e-02  -7.2542505141098571e-02  -7.1683567301925669e-02  -6.8754088925814166e-02  -1.4370251219548641e-01  -7.3021961545229858e-02  -6.7831603014033723e-02  -6.4979889827191606e-02  -1.3540642182530671e-01  -6.4094146701900986e-02  -6.1147793056313911e-02  -6.2302751285477534e-02  -5.8154084444623715e-02  -5.7207106646256382e-02  -5.4106565285753971e-02  -5.5008197707065054e-02  -5.0967451013240975e-02  -5.0076200040805471e-02  -4.6933909704251590e-02  -4.6029602313841247e-02  -4.2805910086167916e-02  -4.3733890271231361e-02  -3.9612296638962187e-02  -3.8650812724303013e-02  -3.5484709258065815e-02  -3.4558461421383323e-02  -3.1373510471756308e-02  -1.4003973662886285e-01  -1.1176622189699778e-01  -1.2707192442796117e-01  -3.0538473613716855e-02  -2.7293681196663512e-02  -2.8140025916720851e-02  -2.3908645356806636e-02  -2.3065048380659606e-02  -1.9682558214437752e-02  -2.4753588828077593e-02  2.5519199015626274e-02  2.7333534623655474e-02  2.6097476511681303e-02  2.7678382636666669e-02  2.6610393464670271e-02  2.7952718105410678e-02  -9.3133660988790390e-02  -4.5837774761062766e-02  -1.6056029539828354e-01  -1.8804803973903508e-02  -1.5490861771917178e-02  -1.0388683539172459e-01  2.3306323308639108e-02  2.7205792810086504e-02  1.4976045930884262e-02  2.7032413048750412e-02  2.8147421326135614e-02  2.9154966220511076e-02  2.9134749065660524e-02  2.8268475785441276e-02  2.9062499058721523e-02  2.8322469767836384e-02  2.8931856509804867e-02  2.8295091996356974e-02  2.8735750165528515e-02  2.8195939952918032e-02  2.8481629147856766e-02  2.8014004558526203e-02  2.8156633709382928e-02  2.7756932712228066e-02  2.7772527751596141e-02  2.7427431357636100e-02  2.7327470483428214e-02  2.7029158076731567e-02  2.6823461237087304e-02  2.6551288955939306e-02  2.6245831542025595e-02  2.5992691302377833e-02  2.5616913343540576e-02  2.5358347734128501e-02  2.4902167942983396e-02  2.4664189407405668e-02  2.4147157582286298e-02  2.3876498751895993e-02  2.3307440272328509e-02  2.3034804002460583e-02  2.2420290007408569e-02  2.8858859897526824e-02  -4.0607522771956089e-02  -7.4733965965456603e-02  -1.4489051969524996e-02  -1.1189162240929362e-02  -1.2181178905629040e-02  -7.7292651497847045e-03  -8.7653995686589724e-03  -4.2111157967409264e-03  -3.2935816978433645e-03  2.4346693796098957e-04  1.2821371274002664e-03  4.7908206572349404e-03  3.8494807758226572e-03  8.3843954219845682e-03  9.1847706733555728e-03  1.2884627917218104e-02  1.3672104024985419e