<?xml version="1.0"?>
<VTKFile type="UnstructuredGrid"  version="0.1"  >
<UnstructuredGrid>
<Piece  NumberOfPoints="2886" NumberOfCells="5412">
<Points>
<DataArray  type="Float64"  NumberOfComponents="3"  format="ascii">0 0.1 0  0.98 0.1 0  1 0.1 0  1 0 0  1.5 0 0  3 0 0  3 0.3 0  0 0.3 0  0.01975375321854102 0.1 0  0.03918897458218897 0.1 0  0.05831079002627837 0.1 0  0.07712425666319796 0.1 0  0.0956343475259058 0.1 0  0.1138459546796227 0.1 0  0.1317638870668193 0.1 0  0.1493928840275937 0.1 0  0.1667376092280033 0.1 0  0.1838026357802664 0.1 0  0.2005924801287244 0.1 0  0.2171115811543574 0.1 0  0.2333643037107681 0.1 0  0.2493549444060462 0.1 0  0.2650877293306821 0.1 0  0.2805668058011438 0.1 0  0.2957962848620976 0.1 0  0.3107801766802674 0.1 0  0.3255224447361181 0.1 0  0.3400269848175519 0.1 0  0.3542976327080778 0.1 0  0.3683381609158136 0.1 0  0.3821522744564845 0.1 0  0.3957436316838916 0.1 0  0.4091158196437086 0.1 0  0.4222723742184605 0.1 0  0.4352167733293057 0.1 0  0.4479524348643424 0.1 0  0.4604827295467524 0.1 0  0.4728109659990664 0.1 0  0.4849404035409129 0.1 0  0.4968742471455402 0.1 0  0.508615651843175 0.1 0  0.520167721130924 0.1 0  0.5315335063628542 0.1 0  0.5427160117228604 0.1 0  0.5537181940261912 0.1 0  0.564542961924507 0.1 0  0.575193173270606 0.1 0  0.5856716438765114 0.1 0  0.5959811458006617 0.1 0  0.6061243988680743 0.1 0  0.6161040893285659 0.1 0  0.6259228503970299 0.1 0  0.6355832809287655 0.1 0  0.6450879281079505 0.1 0  0.6544393102991295 0.1 0  0.663639896558931 0.1 0  0.6726921201956305 0.1 0  0.6815983691630338 0.1 0  0.6903610031396646 0.1 0  0.6989823343332418 0.1 0  0.7074646404270378 0.1 0  0.7158101645005117 0.1 0  0.7240211149852543 0.1 0  0.7320996585612525 0.1 0  0.7400479319727645 0.1 0  0.7478680336617921 0.1 0  0.755562036504958 0.1 0  0.7631319665092091 0.1 0  0.7705798279317605 0.1 0  0.777907588066146 0.1 0  0.7851171851013118 0.1 0  0.7922105226004981 0.1 0  0.7991894774550319 0.1 0  0.8060558928136696 0.1 0  0.812811583201334 0.1 0  0.8194583352091183 0.1 0  0.8259979035038147 0.1 0  0.8324320194413813 0.1 0  0.8387623808293405 0.1 0  0.8449906627004957 0.1 0  0.8511185094880469 0.1 0  0.8571475426008311 0.1 0  0.8630793533568246 0.1 0  0.8689155114558531 0.1 0  0.8746575581239063 0.1 0  0.8803070109173519 0.1 0  0.885865363938836 0.1 0  0.8913340851680313 0.1 0  0.8967146206523592 0.1 0  0.9020083930695622 0.1 0  0.9072167995950768 0.1 0  0.9123412183131177 0.1 0  0.9173830029719022 0.1 0  0.9223434865647732 0.1 0  0.9272239785872722 0.1 0  0.9320257720706087 0.1 0  0.9367501330378739 0.1 0  0.9413983102716995 0.1 0  0.9459715351562933 0.1 0  0.9504710127113115 0.1 0  0.9548979346500661 0.1 0  0.9592534708344373 0.1 0  0.9635387708980176 0.1 0  0.9677549682252325 0.1 0  0.971903177251235 0.1 0  0.9759844952956497 0.1 0  0.9840000000000086 0.1 0  0.987999999999974 0.1 0  0.9919999999999393 0.1 0  0.9959999999999913 0.1 0  1 0.09591793123533533 0  1 0.09133596463859224 0  1 0.08619288104391448 0  1 0.08041996484521211 0  1 0.07394008421771697 0  1 0.06666666567302955 0  1 0.05850252932209174 0  1 0.04933859630113544 0  1 0.03905242821848202 0  1 0.02750659386753798 0  1 0.01454683679239736 0  1.015625 0 0  1.03125 0 0  1.046875 0 0  1.0625 0 0  1.078125 0 0  1.09375 0 0  1.109375 0 0  1.125 0 0  1.140625 0 0  1.15625 0 0  1.171875 0 0  1.1875 0 0  1.203125 0 0  1.21875 0 0  1.234375 0 0  1.25 0 0  1.265625 0 0  1.28125 0 0  1.296875 0 0  1.3125 0 0  1.328125 0 0  1.34375 0 0  1.359375 0 0  1.375 0 0  1.390625 0 0  1.40625 0 0  1.421875 0 0  1.4375 0 0  1.453125 0 0  1.46875 0 0  1.484375 0 0  1.515920751924515 0 0  1.531989369316721 0 0  1.54820720925872 0 0  1.564575665560501 0 0  1.581096138674279 0 0  1.597770029901263 0 0  1.614598783332311 0 0  1.631583831055205 0 0  1.64872661129721 0 0  1.666028606716533 0 0  1.683491276608443 0 0  1.701116134125304 0 0  1.718904673324128 0 0  1.736858414799339 0 0  1.754978895814663 0 0  1.773267661782904 0 0  1.791726281103402 0 0  1.810356325314689 0 0  1.8291593848892 0 0  1.848137076690385 0 0  1.867291007717254 0 0  1.886622833871288 0 0  1.90613418642363 0 0  1.925826753299799 0 0  1.945702199101513 0 0  1.96576223584749 0 0  1.986008569283268 0 0  2.006442931928877 0 0  2.02706707547783 0 0  2.047882750887917 0 0  2.06889175187935 0 0  2.090095860038271 0 0  2.111496891648636 0 0  2.133096679109554 0 0  2.154897066851056 0 0  2.176899916687499 0 0  2.199107102752146 0 0  2.22152053937028 0 0  2.244142122958061 0 0  2.266973806444078 0 0  2.290017523268154 0 0  2.313275249499252 0 0  2.336748971745516 0 0  2.360440702338606 0 0  2.384352453384031 0 0  2.408486280477412 0 0  2.432844240041185 0 0  2.457428414757088 0 0  2.482240901796653 0 0  2.507283830121838 0 0  2.532559332080812 0 0  2.558069568787417 0 0  2.583816724966441 0 0  2.60980299606584 0 0  2.636030600971886 0 0  2.662501790984011 0 0  2.689218818279327 0 0  2.716183964547616 0 0  2.743399548861297 0 0  2.77086788244719 0 0  2.798591312896326 0 0  2.826572223178268 0 0  2.854812990138617 0 0  2.883316031690714 0 0  2.912083780657189 0 0  2.941118704633482 0 0  2.970423276998917 0 0  3 0.02999999999994495 0  3 0.05999999999987042 0  3 0.089999999999783 0  3 0.119999999999701 0  3 0.149999999999619 0  3 0.179999999999692 0  3 0.2099999999997737 0  3 0.2399999999998511 0  3 0.2699999999999185 0  2.970138294777171 0.3 0  2.940375666438236 0.3 0  2.910711782853056 0.3 0  2.881146331305122 0.3 0  2.851678975030285 0.3 0  2.822309388626621 0.3 0  2.793037250095074 0.3 0  2.76386223529133 0.3 0  2.734784017903872 0.3 0  2.705802289276642 0.3 0  2.676916713794697 0.3 0  2.648126987654635 0.3 0  2.619432780406184 0.3 0  2.590833779385199 0.3 0  2.562329669847737 0.3 0  2.533920134950189 0.3 0  2.505604855727852 0.3 0  2.477383539822502 0.3 0  2.449255847639465 0.3 0  2.421221492569094 0.3 0  2.393280152486815 0.3 0  2.36543151914496 0.3 0  2.337675285481809 0.3 0  2.310011142385583 0.3 0  2.282438797441587 0.3 0  2.254957931061538 0.3 0  2.227568248063605 0.3 0  2.200269436651085 0.3 0  2.173061204949961 0.3 0  2.145943251515011 0.3 0  2.118915272469994 0.3 0  2.091976978084957 0.3 0  2.065128060700849 0.3 0  2.038368218849433 0.3 0  2.01169717777258 0.3 0  1.985114624111908 0.3 0  1.958620267850966 0.3 0  1.93221382054972 0.3 0  1.905894991850698 0.3 0  1.879663489459713 0.3 0  1.853519019126419 0.3 0  1.827461291053897 0.3 0  1.801490031354372 0.3 0  1.775604937580312 0.3 0  1.74980572560258 0.3 0  1.724092118631866 0.3 0  1.698463829173586 0.3 0  1.672920575782554 0.3 0  1.647462076974085 0.3 0  1.622088043536933 0.3 0  1.5967981978949 0.3 0  1.571592267767068 0.3 0  1.546469970305736 0.3 0  1.521431023814044 0.3 0  1.496475156230927 0.3 0  1.471602093687753 0.3 0  1.446811560490646 0.3 0  1.422103279101731 0.3 0  1.397476971708191 0.3 0  1.37293238939876 0.3 0  1.348469231419202 0.3 0  1.324087248732772 0.3 0  1.299786165921677 0.3 0  1.275565710847046 0.3 0  1.251425617644257 0.3 0  1.227365618676339 0.3 0  1.203385446174014 0.3 0  1.179484853067473 0.3 0  1.155663548773374 0.3 0  1.131921292279077 0.3 0  1.108257802159295 0.3 0  1.084672829009693 0.3 0  1.061166115303374 0.3 0  1.037737392995421 0.3 0  1.01438640299116 0.3 0  0.991112899770314 0.3 0  0.9679166155523955 0.3 0  0.944797284182564 0.3 0  0.921754678526042 0.3 0  0.8987885143602501 0.3 0  0.8758985548820624 0.3 0  0.8530845484099929 0.3 0  0.8303462351786988 0.3 0  0.8076833651172373 0.3 0  0.7850956864865304 0.3 0  0.7625829601354557 0.3 0  0.7401449314598274 0.3 0  0.717781337993959 0.3 0  0.6954919649675473 0.3 0  0.6732765357561226 0.3 0  0.6511348120768439 0.3 0  0.6290665642016573 0.3 0  0.6070715355430467 0.3 0  0.5851494825775325 0.3 0  0.5633001690203812 0.3 0  0.5415233562273221 0.3 0  0.5198187909431873 0.3 0  0.4981862401387795 0.3 0  0.4766254686134248 0.3 0  0.4551362360485234 0.3 0  0.4337182975262159 0.3 0  0.4123714223228037 0.3 0  0.3910953802377493 0.3 0  0.3698899313205595 0.3 0  0.3487548463710963 0.3 0  0.3276898864081783 0.3 0  0.3066948129116018 0.3 0  0.2857694003037476 0.3 0  0.2649134227095047 0.3 0  0.2441266417321288 0.3 0  0.2234088223399122 0.3 0  0.2027597568977288 0.3 0  0.1821792020676698 0.3 0  0.1616669305402443 0.3 0  0.1412227158799362 0.3 0  0.12084633013886 0.3 0  0.1005375673448281 0.3 0  0.08029618164595353 0.3 0  0.06012194778526769 0.3 0  0.04001466495039718 0.3 0  0.01997408913631205 0.3 0  0 0.2800000000000553 0  0 0.2600000000001105 0  0 0.2400000000001658 0  0 0.2200000000002211 0  0 0.2000000000002764 0  0 0.1800000000002244 0  0 0.1600000000001691 0  0 0.140000000000115 0  0 0.1200000000000564 0  1.13346801534201 0.01255848438672509 0  1.003577645172735 0.09351054173913405 0  0.9777559943702486 0.1034978156913738 0  0.9524533750752109 0.1040889939962738 0  0.9296242411226409 0.1041520033606139 0  0.9046110503652111 0.104409422380137 0  0.8777709649694228 0.1053360318797398 0  0.8483859145648608 0.1061007868330701 0  0.8162363822948977 0.1052777104363292 0  0.7893110024210437 0.1060761643971561 0  0.7587949382612539 0.1067265405088633 0  0.7280603867732535 0.1069398153264939 0  0.6947001989413015 0.1075609887579097 0  0.6590363283767549 0.1076715322596598 0  0.6210028614493155 0.1072970410408442 0  1.1953125 0.01353164693413185 0  1.258193991486058 0.01269648635163345 0  1.3201967268638 0.01407907077719561 0  1.383538555392096 0.01434101079053473 0  1.445312500000001 0.01303671693628424 0  1.508925448095738 0.01398525724792267 0  0.9939176689634008 0.1034638089837981 0  1.120967497222226 0.2796788492172345 0  1.572835902117391 0.01424132418857359 0  1.637573277451887 0.01212536916586023 0  1.709730776795181 0.01466855431023635 0  1.005631976950563 0.07074019818158772 0  1.784944696816299 0.01454708406461822 0  0.5805605730631225 0.1101465090472147 0  1.855621181165637 0.01550931272897607 0  0.5366111276616774 0.1096761308243709 0  1.935200147913231 0.01760344159641829 0  1.214922267975168 0.2799787705802257 0  1.31178773425331 0.2792
[...]
<PointData  Scalars="pressure"> 
<DataArray  type="Float64"  Name="pressure"  format="ascii">1.5864178041548843e-01  -1.6544869616048921e-01  -2.1626534135296521e-01  -1.6165569123416931e-01  -4.1147943672273868e-02  0.0000000000000000e+00  0.0000000000000000e+00  1.5864886696982031e-01  1.5271565814667021e-01  1.4688502618773233e-01  1.4114831822321036e-01  1.3550400964013787e-01  1.2995058734852608e-01  1.2448657231612258e-01  1.1911052978169573e-01  1.1382099009875686e-01  1.0861655762920620e-01  1.0349584419265181e-01  9.8457445557719611e-02  9.3500012584843667e-02  8.8622230958617793e-02  8.3822739342591976e-02  7.9100240367346836e-02  7.4453518819777742e-02  6.9881182272914316e-02  6.5382037712603605e-02  6.0954844386104393e-02  5.6598305138266233e-02  5.2311256235999373e-02  4.8092568153065444e-02  4.3940896349781169e-02  3.9855160290323544e-02  3.5834077290898173e-02  3.1876550070867642e-02  2.7981534491739960e-02  2.4147766148161838e-02  2.0374069290393169e-02  1.6659397654520857e-02  1.3002624200993892e-02  9.4025611421054006e-03  5.8582168743365037e-03  2.3683636640230259e-03  -1.0680177855004285e-03  -4.4520982339006955e-03  -7.7849475212163803e-03  -1.1067251826368290e-02  -1.4300811390743143e-02  -1.7486249553476121e-02  -2.0624674838410521e-02  -2.3717362145777444e-02  -2.6765328965489454e-02  -2.9769027464007593e-02  -3.2730494694398017e-02  -3.5650223083734563e-02  -3.8529333257419730e-02  -4.1368958729883117e-02  -4.4170091042146392e-02  -4.6933778784372715e-02  -4.9661203617777552e-02  -5.2353301706932323e-02  -5.5011041733363776e-02  -5.7635379308301350e-02  -6.0227887959634623e-02  -6.2788960099285432e-02  -6.5319866279228284e-02  -6.7821268837107526e-02  -7.0295183910076220e-02  -7.2742047908829072e-02  -7.5162113242238149e-02  -7.7557118906237066e-02  -7.9928639636945964e-02  -8.2276389356407562e-02  -8.4602432016835469e-02  -8.6907498402886391e-02  -8.9191884334724636e-02  -9.1457177208411511e-02  -9.3704281380313947e-02  -9.5934129399963403e-02  -9.8148464071505792e-02  -1.0034739131990623e-01  -1.0253139195486211e-01  -1.0470113440588338e-01  -1.0686005493480466e-01  -1.0900727198474333e-01  -1.1114347582676185e-01  -1.1327054656837843e-01  -1.1538889052764023e-01  -1.1749946900365665e-01  -1.1960339347142100e-01  -1.2170254327187317e-01  -1.2379739072900416e-01  -1.2588817458151336e-01  -1.2797724730978774e-01  -1.3006549980041077e-01  -1.3215405174198225e-01  -1.3424425838242529e-01  -1.3633732032503360e-01  -1.3843484563410507e-01  -1.4053849227633392e-01  -1.4265010532273784e-01  -1.4477160686858223e-01  -1.4690445705947736e-01  -1.4904985830512069e-01  -1.5119583427741470e-01  -1.5356825440537022e-01  -1.5475766440776820e-01  -1.5831215479080049e-01  -1.5559609815850842e-01  -1.6060011614811212e-01  -1.5807543917748876e-01  -2.0354700197063239e-01  -1.8207383746496902e-01  -1.7548836364384329e-01  -1.7069732086611361e-01  -1.6746347673469072e-01  -1.6503693558512772e-01  -1.6321985664445032e-01  -1.6188925649325686e-01  -1.6109103324882509e-01  -1.6089665643350651e-01  -1.6130367666496864e-01  -1.6209639945858251e-01  -1.6247185741778561e-01  -1.6226712149863476e-01  -1.6159737914215491e-01  -1.6055328197110239e-01  -1.5917859834533132e-01  -1.5745839338207138e-01  -1.5537991970444562e-01  -1.5297223206038202e-01  -1.5025267933804284e-01  -1.4722524012343899e-01  -1.4390361701086943e-01  -1.4029886792105783e-01  -1.3642301416536592e-01  -1.3229638074930636e-01  -1.2793183172099107e-01  -1.2334171867003701e-01  -1.1854429930069502e-01  -1.1355836805427431e-01  -1.0839446056817809e-01  -1.0308243861863829e-01  -9.7640446855204982e-02  -9.2084304418461799e-02  -8.6444680532509283e-02  -8.0739894660023750e-02  -7.4999312423365314e-02  -6.9245181337451930e-02  -6.3500033249802343e-02  -5.7795439565116069e-02  -5.2152193843312315e-02  -4.6596203348223134e-02  -3.5731780627144653e-02  -3.0432722150992828e-02  -2.5260244664676103e-02  -2.0248477475789468e-02  -1.5424334314228990e-02  -1.0789953896829501e-02  -6.3722969609872927e-03  -2.1766635273645038e-03  1.7482546988849389e-03  5.4263974366409624e-03  8.8572606299965537e-03  1.2019696212506426e-02  1.4915914203552776e-02  1.7552846755548607e-02  1.9934411566055445e-02  2.2065676502771026e-02  2.3962016403675936e-02  2.5623982802285738e-02  2.7065967937618403e-02  2.8318497280277775e-02  2.9370174822077814e-02  3.0251194845611805e-02  3.0975198722547375e-02  3.1550285210004129e-02  3.1997907319356714e-02  3.2322541027484462e-02  3.2555316990831036e-02  3.2686830721188477e-02  3.2738070833113128e-02  3.2713937827055152e-02  3.2622232834987656e-02  3.2472374936406312e-02  3.2273589677438666e-02  3.2029944856770597e-02  3.1742146425393886e-02  3.1417333035693426e-02  3.1056140967463917e-02  3.0661232422527506e-02  3.0233619880187659e-02  2.9773649409134868e-02  2.9281627456985468e-02  2.8757405734810670e-02  2.8199676185992045e-02  2.7608682968504595e-02  2.6981860002624744e-02  2.6317840939020350e-02  2.5617700214036192e-02  2.4876570591152291e-02  2.4092469524040965e-02  2.3269759009666918e-02  2.2398881160440465e-02  2.1486906071671127e-02  2.0523349806960141e-02  1.9517053686886488e-02  1.8460245322345758e-02  1.7349150194371506e-02  1.6194255740167137e-02  1.4981404569497425e-02  1.3721951885190304e-02  1.2409821340947910e-02  1.1044007369825099e-02  9.6245128801740448e-03  8.1534796586767953e-03  6.6340785981369573e-03  5.0569030656878291e-03  3.4396122351980879e-03  1.7659685286142458e-03  0.0000000000000000e+00  0.0000000000000000e+00  0.0000000000000000e+00  0.0000000000000000e+00  0.0000000000000000e+00  0.0000000000000000e+00  0.0000000000000000e+00  0.0000000000000000e+00  0.0000000000000000e+00  1.9169703694186791e-03  3.7063041615714126e-03  5.4679355360384733e-03  7.1764725924546224e-03  8.8356792625505047e-03  1.0444267480362887e-02  1.2001298557480475e-02  1.3505044118424904e-02  1.4952632681810686e-02  1.6341842553523996e-02  1.7668658132127278e-02  1.8930585824606917e-02  2.0122549788078481e-02  2.1241541807806869e-02  2.2282719405582796e-02  2.3239491569994074e-02  2.4111464085797805e-02  2.4887505275201786e-02  2.5562952772838592e-02  2.6131657108463057e-02  2.6586760057537642e-02  2.6921621920186264e-02  2.7130585991372608e-02  2.7202905545179578e-02  2.7136959525233002e-02  2.6921052479293526e-02  2.6553009216360751e-02  2.6021497555033538e-02  2.5321426579995601e-02  2.4450157866157028e-02  2.3396999698501269e-02  2.2156503800780575e-02  2.0743598858013450e-02  1.9143976051212409e-02  1.7331711150359964e-02  1.5347005727990484e-02  1.3166615460895439e-02  1.0791419896283053e-02  8.2228743198270171e-03  5.4686435411941984e-03  2.5198583633188523e-03  -6.0965743308430376e-04  -3.9282870599596717e-03  -7.4254019686053338e-03  -1.1112139656867586e-02  -1.4972670714442537e-02  -1.9008143839735748e-02  -2.3209457139024354e-02  -2.7579743580847766e-02  -3.2104925044036357e-02  -3.6782085969260060e-02  -4.1599595974769532e-02  -4.6543911874491695e-02  -5.1606201715106596e-02  -5.6770618876163068e-02  -6.2013407432147311e-02  -6.7275343735859472e-02  -7.2602698138815244e-02  -7.7910410074016889e-02  -8.3138863882398828e-02  -8.8292005673644425e-02  -9.3298323890440668e-02  -9.8138492736080093e-02  -1.0270669339517322e-01  -1.0699646234284066e-01  -1.1089846028176988e-01  -1.1440080983377579e-01  -1.1739305011651914e-01  -1.1987958318147302e-01  -1.2172838399713858e-01  -1.2295499286264623e-01  -1.2348803627515111e-01  -1.2320007629200026e-01  -1.2226284041196815e-01  -1.2054304172672124e-01  -1.1804971573685229e-01  -1.1490132342984466e-01  -1.1112249872750182e-01  -1.0683927117577269e-01  -1.0212115272930297e-01  -9.6968875698863755e-02  -9.1518153971124699e-02  -8.5808241235047863e-02  -7.9931188166564041e-02  -7.3891606250581637e-02  -6.7717419527076245e-02  -6.1460655102195214e-02  -5.5134324391965216e-02  -4.8749503481915368e-02  -4.2329613257047191e-02  -3.5879742299846952e-02  -2.9418065590140274e-02  -2.2947487752430714e-02  -1.6470581169564187e-02  -9.9986733866351350e-03  -3.5329926899082590e-03  2.9252476556529683e-03  9.3726083352085893e-03  1.5806024807141505e-02  2.2224352029982443e-02  2.8627075245818298e-02  3.5012682440023486e-02  4.1380986289944327e-02  4.7730400498554412e-02  5.4061273923756273e-02  6.0372893073830931e-02  6.6664990666863544e-02  7.2937473498911179e-02  7.9190038644012445e-02  8.5422637874052701e-02  9.1635237854096524e-02  9.7827744646931170e-02  1.0400013354861622e-01  1.1015240592076882e-01  1.1628457407081452e-01  1.2239661816504381e-01  1.2848860885323615e-01  1.3456056776531564e-01  1.4061252453918227e-01  1.4664453358217075e-01  1.5265663054460424e-01  1.5864883958082104e-01  1.5864854499315700e-01  1.5864782562574534e-01  1.5864669645343707e-01  1.5864532491031952e-01  1.5864395195218600e-01  1.5864282041997702e-01  1.5864209625878486e-01  1.5864180272838788e-01  -1.5381311811848428e-01  -1.8657825360988325e-01  -1.5728056449679942e-01  -1.4374003623686910e-01  -1.3329873516426224e-01  -1.2282581069287506e-01  -1.1238292080831244e-01  -1.0161170296019238e-01  -9.0394157671133832e-02  -8.1346315319869480e-02  -7.1363022858464742e-02  -6.1525743233552005e-02  -5.1029659649230542e-02  -3.9957566778587646e-02  -2.8269999086738117e-02  -1.4195903541544150e-01  -1.2551186371905862e-01  -1.0587689900356029e-01  -8.3530182515235168e-02  -6.0916692797878258e-02  -3.8467212397721190e-02  -1.6977353554252270e-01  -1.2176412726614516e-01  -1.8224687097248206e-02  -1.1542171955988814e-03  1.3055359223615622e-02  -1.6694228946784936e-01  2.2949876848983822e-02  -1.5937871604053439e-02  2.8460388420557550e-02  -2.6079213254826890e-03  3.1550427128378376e-02  -1.1208680903626056e-01  -9.5085209867571421e-02  3.2593416422507349e-02  -7.4821156407629125e-02  1.1202877321911069e-02  -4.8671564455493671e-02  3.2285343508630056e-02  2.6063214299058671e-02  -1.5938151154039101e-01  3.1165877844513693e-02  -2.5162849843994615e-02  -1.2226879335863200e-01  4.1465874820679552e-02  2.9477313998031059e-02  -2.2119927616956665e-03  5.8963504353181123e-02  6.7095990648142556e-03  2.7230774779318657e-02  1.4356315451151564e-02  7.6254497960577317e-02  -1.1618292629171915e-01  2.4498246375898008e-02  1.9931872223023082e-02  -1.0437121723502027e-01  2.3930079801039762e-02  2.0985504483165048e-02  -8.8658910033821051e-02  9.6454609376419323e-02  1.1047168689988163e-01  -1.2933020432631628e-02  1.7874187362409196e-02  1.4178724228765963e-02  2.6215708585243278e-02  -7.1010831948823155e-02  2.7062267329764345e-02  -1.5010170275004178e-01  -4.5981639193520892e-02  2.6259674222697198e-02  1.2792345886239134e-01  -2.6221205877493266e-02  1.0305887390358287e-02  2.3608478727410502e-02  -6.6451385472284866e-03  1.9182300645862085e-02  2.0614172872381962e-02  5.0896460069488933e-02  1.6947041699943988e-02  6.9857519250522776e-02  8.8634931489203775e-02  1.2709490056345051e-02  1.2023492610944715e-01  1.6062153035658255e-03  1.5306535647731129e-01  -1.6208899143279470e-01  8.1021283571634760e-03  5.7234971347219785e-03  1.3803754041889768e-01  -1.7349940667166761e-01  -1.6143886148218090e-01  -1.1803255099968409e-01  -5.8205056380041142e-02  5.6550746069772362e-03  3.1487688304856376e-02  1.3837770082930956e-01  -3.9307649143036791e-02  -6.3925553949856731e-02  -8.5087039268342504e-02  -1.0419129316594665e-01  8.6516965110059088e-02  2.6929656541502492e-02  6.7343810831892073e-02  1.0087649604100568e-01  2.5138239558582076e-02  2.2827522142051849e-02  4.9641935783120650e-02  2.5860478011760276e-02  2.8436011785731616e-02  3.4104535207450493e-02  3.0388420067578383e-02  3.1809734519504723e-02  3.2569776093197826e-02  3.2304537615544797e-02  -2.8212029602266857e-02  1.8514992417286023e-02  3.0313896615916162e-02  2.6040798684801442e-02  4.1300755549281290e-03  1.8617356545804351e-02  6.7639117826899572e-03  -8.8206093647193191e-03  1.3397377684591888e-03  -9.7901270386950012e-03  -2.1724038783712377e-02  1.5340521094107551e-01  -3.3881057313767081e-02  -4.5563522938991373e-02  -5.6338890615406693e-02  -6.6683681610339787e-02  -7.6434892196402454e-02  -8.5681176265198930e-02  -1.4835539850907548e-01  -9.7085442690587151e-02  -1.0798661988244032e-01  -1.1862359638136304e-01  -1.3429662254768532e-01  -1.2917973001247107e-01  -9.5196809333667462e-02  -1.1559344370805506e-01  -7.3196525404381221e-02  -4.9686146546539849e-02  -1.3959874695933835e-01  -1.5852201804564106e-01  1.6845760430759308e-03  1.5290851135718567e-01  4.5161755630536340e-03  -1.6186766527193489e-01  1.5365715901947505e-01  1.3659699538017766e-03  1.4955285013121700e-01  -1.6183593903851445e-01  -1.6149757939229287e-01  -1.6103840996220539e-01  -1.6153864816408092e-01  -1.6106182358885182e-01  -1.6189030752586561e-01  -1.6123236148576137e-01  -1.6234541921657675e-01  -1.6151688140185028e-01  -1.6266793749321412e-01  -1.6172067089786735e-01  -1.6259511006339070e-01  -1.6145270970310915e-01  -1.6196309583505228e-01  -1.6068355715946697e-01  -1.6087537056073672e-01  -1.5942085457697458e-01  -1.5939013269500513e-01  -1.5776677541467521e-01  -1.5733576711010325e-01  -1.5541221041467679e-01  -1.5901012124102573e-01  -1.5594416383188403e-01  -1.5320303054872647e-01  -1.5626806460500953e-01  -1.5820868797393378e-01  -1.5350387449311678e-01  -1.5062301094346048e-01  -1.5084624616014447e-01  -1.4760197247281306e-01  -1.4770815871902920e-01  -1.4414455127730652e-01  -1.4416888012318027e-01  -1.4053456022847119e-01  -1.4022548483304362e-01  -1.3586253181150773e-01  -1.3566107769284214e-01  -1.3147784627853815e-01  -1.3085438740486277e-01  -1.2651160619270044e-01  -1.2565027823488997e-01  -1.2122034967802524e-01  -1.2013469494553847e-01  -1.1566545455363485e-01  -1.1431594602509397e-01  -1.0987693224738278e-01  -1.0822803239465363e-01  -1.0386991103239558e-01  -1.0193547472995508e-01  -9.7724223928877238e-02  -9.5451907470968961e-02  -9.1477463837298059e-02  -8.8751281985652644e-02  -1.5437659519266184e-01  -1.5612258011613547e-01  -8.5146298255638658e-02  -8.1997309820422290e-02  -7.8813585158805516e-02  -7.5670203292846863e-02  -7.2571780424950438e-02  -6.9080495641717601e-02  -6.6428233523685903e-02  -6.2613077176806919e-02  -1.4949708074041490e-01  -6.0496252023155908e-02  -5.6259905082773294e-02  -5.4476707417528497e-02  -5.0037869515574623e-02  -4.8870172561829427e-02  -4.4096598756083821e-02  -1.5148982106759673e-01  -1.5335666477271467e-01  -1.6309473230602381e-01  -4.3404027695667584e-02  -3.8350203663233287e-02  -3.8213713810290560e-02  -3.2885784019673465e-02  -3.3279842126936077e-02  -2.7735122455770461e-02  -1.5946976484092124e-01  -2.8620721975862306e-02  -2.2865942091900307e-02  -1.3981457380769874e-01  -2.4222148438554112e-02  -1.8325551182713892e-02  -2.0115929570814480e-02  -1.4106373830040330e-02  -1.6220030193890223e-02  -1.0199059833641444e-02  -1.6005015570544232e-01  -1.2639625850752242e-01  -1.2657831422972363e-02  -6.6047000381268400e-03  -1.4764754352070275e-01  -1.4877986936529936e-01  -1.4613162015110626e-01  -1.1054298480559657e-01  -9.2869493060945378e-03  -3.1627924622359147e-03  -6.2587003223119947e-03  -7.4247648914405360e-05  -3.3820128538184944e-03  2.5990387696242512e-03  -3.9155748977352106e-02  -3.7618532315323997e-04  -2.2235689451279322e-02  -5.8490463620870597e-02  -7.1754612736354430e-04  5.0490126026387213e-03  8.3595918611315077e-03  1.0654356717650360e-02  7.3405979589484891e-03  1.2723808480284841e-02  9.5014332348183333e-03  1.4655092509889979e-02  1.1451513349595556e-02  1.6336296254672669e-02  1.3237271784889140e-02  1.7885428713228867e-02  1.4917957543987271e-02  1.9246424116820218e-02  1.6374980156297868e-02  2.0489966628783291e-02  1.7831448421833918e-02  2.1726213492173206e-02  1.9131855762810155e-02  2.2740964632391267e-02  2.0357310036743608e-02  2.3622860630275650e-02  2.1337620697469768e-02  2.4425983263970993e-02  -7.8565426010700309e-02  -9.3522380226616866e-02  2.2340679163850359e-02  2.5103969077021036e-02  2.3292063605833895e-02  2.5749210875301205e-02  -1.4696462450839126e-01  -1.1216771278280720e-01  2.4139586355012833e-02  2.6282307637077878e-02  -1.2931477228446936e-01  -7.6182902030805952e-02  -1.4289549831735360e-01  -1.4358960916215166e-01  -1.5021743030209025e-01  -1.4389569949710970e-01  -1.4939900766898784e-01  -1.4346587029898156e-01  -1.4922575928419993e-01  -1.4248080770926771e-01  -1.4645741011628577e-01  -1.4049629135066885e-01  -1.4455415407745439e-01  -1.3812932912564049e-01  -1.4065652090787342e-01  -1.3512654619684844e-01  -1.3697031306288646e-01  -1.3195223626964719e-01  -1.3318041960032326e-01  -1.2852337842756981e-01  -1.2934270917186383e-01  -1.2501916703338709e-01  -1.2547423547396683e-01  -1.2142226574829643e-01  -1.2162448998973693e-01  -1.1780199418606548e-01  -1.1778706479773247e-01  -1.1420665408818106e-01  -1.1364456239971311e-01  -1.1033255267822295e-01  -1.1054315559721635e-01  -1.0693139476610691e-01  -1.0664838031262509e-01  -1.0332147552536307e-01  -1.0305588819974291e-01  -9.9755621085064958e-02  -9.9234890634383094e-02  -9.6129878129219082e-02  -1.2991825905798340e-01  -1.0668128545318485e-01  -1.2053453776254851e-01  -9.5546516023949882e-02  -9.2425959168021515e-02  -9.2775865449821054e-02  -8.9241716808073468e-02  -8.8681643348294578e-02  -8.5626128646489982e-02  -8.4892769996255862e-02  -8.1956289769392246e-02  -8.1119536661108993e-02  -7.8230421294015653e-02  -8.5451794720594040e-02  -1.5446162053996609e-01  -1.4599196984927157e-01  -7.7407434220509469e-02  -7.4447537727728830e-02  -7.5230785645254525e-02  -7.1452142885829337e-02  -7.0640800417936966e-02  -6.7692111136513231e-02  -6.6777810596110598e-02  -6.3907495539079082e-02  -1.3780246035122293e-01  -6.8241967152006117e-02  -6.2938302231864751e-02  -6.0137240353962410e-02  -1.2944067099097689e-01  -5.9212956046185913e-02  -5.6311792925148131e-02  -5.7510247083004569e-02  -5.3362862857664256e-02  -5.2377306453912573e-02  -4.9315337562559243e-02  -5.0260790874010246e-02  -4.6213972139552105e-02  -4.5285728277008275e-02  -4.2176272274926187e-02  -4.1240945695531134e-02  -3.8045665919873545e-02  -3.9006817634861475e-02  -3.4878597389623345e-02  -3.3889371195473035e-02  -3.0746401782285146e-02  -2.9797356587661167e-02  -2.6632485190910590e-02  -1.3842389746104006e-01  -1.0630308086624327e-01  -1.2123621774727851e-01  -2.5778489016351262e-02  -2.2551034200652364e-02  -2.3417693649859985e-02  -1.9182299565348126e-02  -1.8321890214700789e-02  -1.4953171592559225e-02  -2.0047872908035922e-02  2.4813171884880560e-02  2.6727163501151101e-02  2.5427162510170360e-02  2.7104388517057789e-02  2.5975703823802349e-02  2.7409538735448508e-02  -8.7980679133522408e-02  -4.8409941497249968e-02  -1.6291379133578127e-01  -1.4061773758848841e-02  -1.0759775470558786e-02  -9.8538273664204035e-02  2.2287787756727986e-02  2.6501835278566369e-02  1.3431396040975933e-02  2.6432846849614430e-02  2.7633710476996809e-02  2.8697594655810177e-02  2.8701368279612234e-02  2.7783073084647780e-02  2.8652520958283995e-02  2.7865090927378783e-02  2.8544542261085316e-02  2.7864464541248194e-02  2.8369284377990283e-02  2.7791503295166494e-02  2.8135876905129781e-02  2.7634615230681954e-02  2.7830721782290194e-02  2.7401387106798545e-02  2.7466004941182703e-02  2.7095408381144426e-02  2.7039725501373769e-02  2.6720000161985325e-02  2.6554290857124702e-02  2.6264702634244175e-02  2.5994432537973376e-02  2.5727581444323900e-02  2.5383200941586092e-02  2.5113351256816865e-02  2.4684997648021206e-02  2.4439114162939771e-02  2.3946645024197775e-02  2.3670884011423227e-02  2.3122593976174919e-02  2.2846567008884898e-02  2.2250959282439569e-02  2.8318557223784832e-02  -3.5907080632370615e-02  -6.9762418725098696e-02  -9.7467775873249889e-03  -6.4572338235701450e-03  -7.4613171657472140e-03  -3.0070863810731457e-03  -4.0555897322690406e-03  5.0233185640007083e-04  1.4302212703760470e-03  4.9595691061080412e-03  6.0068452324170598e-03  9.5088427452551996e-03  8.5589838809968666e-03  1.3096530823279027e-02  1.3903998970249663e-02  1.7598707227148166e-02  1.8391917766701755