<?xml version="1.0"?>
<VTKFile type="UnstructuredGrid"  version="0.1"  >
<UnstructuredGrid>
<Piece  NumberOfPoints="2886" NumberOfCells="5412">
<Points>
<DataArray  type="Float64"  NumberOfComponents="3"  format="ascii">0 0.1 0  0.98 0.1 0  1 0.1 0  1 0 0  1.5 0 0  3 0 0  3 0.3 0  0 0.3 0  0.01975375321854102 0.1 0  0.03918897458218897 0.1 0  0.05831079002627837 0.1 0  0.07712425666319796 0.1 0  0.0956343475259058 0.1 0  0.1138459546796227 0.1 0  0.1317638870668193 0.1 0  0.1493928840275937 0.1 0  0.1667376092280033 0.1 0  0.1838026357802664 0.1 0  0.2005924801287244 0.1 0  0.2171115811543574 0.1 0  0.2333643037107681 0.1 0  0.2493549444060462 0.1 0  0.2650877293306821 0.1 0  0.2805668058011438 0.1 0  0.2957962848620976 0.1 0  0.3107801766802674 0.1 0  0.3255224447361181 0.1 0  0.3400269848175519 0.1 0  0.3542976327080778 0.1 0  0.3683381609158136 0.1 0  0.3821522744564845 0.1 0  0.3957436316838916 0.1 0  0.4091158196437086 0.1 0  0.4222723742184605 0.1 0  0.4352167733293057 0.1 0  0.4479524348643424 0.1 0  0.4604827295467524 0.1 0  0.4728109659990664 0.1 0  0.4849404035409129 0.1 0  0.4968742471455402 0.1 0  0.508615651843175 0.1 0  0.520167721130924 0.1 0  0.5315335063628542 0.1 0  0.5427160117228604 0.1 0  0.5537181940261912 0.1 0  0.564542961924507 0.1 0  0.575193173270606 0.1 0  0.5856716438765114 0.1 0  0.5959811458006617 0.1 0  0.6061243988680743 0.1 0  0.6161040893285659 0.1 0  0.6259228503970299 0.1 0  0.6355832809287655 0.1 0  0.6450879281079505 0.1 0  0.6544393102991295 0.1 0  0.663639896558931 0.1 0  0.6726921201956305 0.1 0  0.6815983691630338 0.1 0  0.6903610031396646 0.1 0  0.6989823343332418 0.1 0  0.7074646404270378 0.1 0  0.7158101645005117 0.1 0  0.7240211149852543 0.1 0  0.7320996585612525 0.1 0  0.7400479319727645 0.1 0  0.7478680336617921 0.1 0  0.755562036504958 0.1 0  0.7631319665092091 0.1 0  0.7705798279317605 0.1 0  0.777907588066146 0.1 0  0.7851171851013118 0.1 0  0.7922105226004981 0.1 0  0.7991894774550319 0.1 0  0.8060558928136696 0.1 0  0.812811583201334 0.1 0  0.8194583352091183 0.1 0  0.8259979035038147 0.1 0  0.8324320194413813 0.1 0  0.8387623808293405 0.1 0  0.8449906627004957 0.1 0  0.8511185094880469 0.1 0  0.8571475426008311 0.1 0  0.8630793533568246 0.1 0  0.8689155114558531 0.1 0  0.8746575581239063 0.1 0  0.8803070109173519 0.1 0  0.885865363938836 0.1 0  0.8913340851680313 0.1 0  0.8967146206523592 0.1 0  0.9020083930695622 0.1 0  0.9072167995950768 0.1 0  0.9123412183131177 0.1 0  0.9173830029719022 0.1 0  0.9223434865647732 0.1 0  0.9272239785872722 0.1 0  0.9320257720706087 0.1 0  0.9367501330378739 0.1 0  0.9413983102716995 0.1 0  0.9459715351562933 0.1 0  0.9504710127113115 0.1 0  0.9548979346500661 0.1 0  0.9592534708344373 0.1 0  0.9635387708980176 0.1 0  0.9677549682252325 0.1 0  0.971903177251235 0.1 0  0.9759844952956497 0.1 0  0.9840000000000086 0.1 0  0.987999999999974 0.1 0  0.9919999999999393 0.1 0  0.9959999999999913 0.1 0  1 0.09591793123533533 0  1 0.09133596463859224 0  1 0.08619288104391448 0  1 0.08041996484521211 0  1 0.07394008421771697 0  1 0.06666666567302955 0  1 0.05850252932209174 0  1 0.04933859630113544 0  1 0.03905242821848202 0  1 0.02750659386753798 0  1 0.01454683679239736 0  1.015625 0 0  1.03125 0 0  1.046875 0 0  1.0625 0 0  1.078125 0 0  1.09375 0 0  1.109375 0 0  1.125 0 0  1.140625 0 0  1.15625 0 0  1.171875 0 0  1.1875 0 0  1.203125 0 0  1.21875 0 0  1.234375 0 0  1.25 0 0  1.265625 0 0  1.28125 0 0  1.296875 0 0  1.3125 0 0  1.328125 0 0  1.34375 0 0  1.359375 0 0  1.375 0 0  1.390625 0 0  1.40625 0 0  1.421875 0 0  1.4375 0 0  1.453125 0 0  1.46875 0 0  1.484375 0 0  1.515920751924515 0 0  1.531989369316721 0 0  1.54820720925872 0 0  1.564575665560501 0 0  1.581096138674279 0 0  1.597770029901263 0 0  1.614598783332311 0 0  1.631583831055205 0 0  1.64872661129721 0 0  1.666028606716533 0 0  1.683491276608443 0 0  1.701116134125304 0 0  1.718904673324128 0 0  1.736858414799339 0 0  1.754978895814663 0 0  1.773267661782904 0 0  1.791726281103402 0 0  1.810356325314689 0 0  1.8291593848892 0 0  1.848137076690385 0 0  1.867291007717254 0 0  1.886622833871288 0 0  1.90613418642363 0 0  1.925826753299799 0 0  1.945702199101513 0 0  1.96576223584749 0 0  1.986008569283268 0 0  2.006442931928877 0 0  2.02706707547783 0 0  2.047882750887917 0 0  2.06889175187935 0 0  2.090095860038271 0 0  2.111496891648636 0 0  2.133096679109554 0 0  2.154897066851056 0 0  2.176899916687499 0 0  2.199107102752146 0 0  2.22152053937028 0 0  2.244142122958061 0 0  2.266973806444078 0 0  2.290017523268154 0 0  2.313275249499252 0 0  2.336748971745516 0 0  2.360440702338606 0 0  2.384352453384031 0 0  2.408486280477412 0 0  2.432844240041185 0 0  2.457428414757088 0 0  2.482240901796653 0 0  2.507283830121838 0 0  2.532559332080812 0 0  2.558069568787417 0 0  2.583816724966441 0 0  2.60980299606584 0 0  2.636030600971886 0 0  2.662501790984011 0 0  2.689218818279327 0 0  2.716183964547616 0 0  2.743399548861297 0 0  2.77086788244719 0 0  2.798591312896326 0 0  2.826572223178268 0 0  2.854812990138617 0 0  2.883316031690714 0 0  2.912083780657189 0 0  2.941118704633482 0 0  2.970423276998917 0 0  3 0.02999999999994495 0  3 0.05999999999987042 0  3 0.089999999999783 0  3 0.119999999999701 0  3 0.149999999999619 0  3 0.179999999999692 0  3 0.2099999999997737 0  3 0.2399999999998511 0  3 0.2699999999999185 0  2.970138294777171 0.3 0  2.940375666438236 0.3 0  2.910711782853056 0.3 0  2.881146331305122 0.3 0  2.851678975030285 0.3 0  2.822309388626621 0.3 0  2.793037250095074 0.3 0  2.76386223529133 0.3 0  2.734784017903872 0.3 0  2.705802289276642 0.3 0  2.676916713794697 0.3 0  2.648126987654635 0.3 0  2.619432780406184 0.3 0  2.590833779385199 0.3 0  2.562329669847737 0.3 0  2.533920134950189 0.3 0  2.505604855727852 0.3 0  2.477383539822502 0.3 0  2.449255847639465 0.3 0  2.421221492569094 0.3 0  2.393280152486815 0.3 0  2.36543151914496 0.3 0  2.337675285481809 0.3 0  2.310011142385583 0.3 0  2.282438797441587 0.3 0  2.254957931061538 0.3 0  2.227568248063605 0.3 0  2.200269436651085 0.3 0  2.173061204949961 0.3 0  2.145943251515011 0.3 0  2.118915272469994 0.3 0  2.091976978084957 0.3 0  2.065128060700849 0.3 0  2.038368218849433 0.3 0  2.01169717777258 0.3 0  1.985114624111908 0.3 0  1.958620267850966 0.3 0  1.93221382054972 0.3 0  1.905894991850698 0.3 0  1.879663489459713 0.3 0  1.853519019126419 0.3 0  1.827461291053897 0.3 0  1.801490031354372 0.3 0  1.775604937580312 0.3 0  1.74980572560258 0.3 0  1.724092118631866 0.3 0  1.698463829173586 0.3 0  1.672920575782554 0.3 0  1.647462076974085 0.3 0  1.622088043536933 0.3 0  1.5967981978949 0.3 0  1.571592267767068 0.3 0  1.546469970305736 0.3 0  1.521431023814044 0.3 0  1.496475156230927 0.3 0  1.471602093687753 0.3 0  1.446811560490646 0.3 0  1.422103279101731 0.3 0  1.397476971708191 0.3 0  1.37293238939876 0.3 0  1.348469231419202 0.3 0  1.324087248732772 0.3 0  1.299786165921677 0.3 0  1.275565710847046 0.3 0  1.251425617644257 0.3 0  1.227365618676339 0.3 0  1.203385446174014 0.3 0  1.179484853067473 0.3 0  1.155663548773374 0.3 0  1.131921292279077 0.3 0  1.108257802159295 0.3 0  1.084672829009693 0.3 0  1.061166115303374 0.3 0  1.037737392995421 0.3 0  1.01438640299116 0.3 0  0.991112899770314 0.3 0  0.9679166155523955 0.3 0  0.944797284182564 0.3 0  0.921754678526042 0.3 0  0.8987885143602501 0.3 0  0.8758985548820624 0.3 0  0.8530845484099929 0.3 0  0.8303462351786988 0.3 0  0.8076833651172373 0.3 0  0.7850956864865304 0.3 0  0.7625829601354557 0.3 0  0.7401449314598274 0.3 0  0.717781337993959 0.3 0  0.6954919649675473 0.3 0  0.6732765357561226 0.3 0  0.6511348120768439 0.3 0  0.6290665642016573 0.3 0  0.6070715355430467 0.3 0  0.5851494825775325 0.3 0  0.5633001690203812 0.3 0  0.5415233562273221 0.3 0  0.5198187909431873 0.3 0  0.4981862401387795 0.3 0  0.4766254686134248 0.3 0  0.4551362360485234 0.3 0  0.4337182975262159 0.3 0  0.4123714223228037 0.3 0  0.3910953802377493 0.3 0  0.3698899313205595 0.3 0  0.3487548463710963 0.3 0  0.3276898864081783 0.3 0  0.3066948129116018 0.3 0  0.2857694003037476 0.3 0  0.2649134227095047 0.3 0  0.2441266417321288 0.3 0  0.2234088223399122 0.3 0  0.2027597568977288 0.3 0  0.1821792020676698 0.3 0  0.1616669305402443 0.3 0  0.1412227158799362 0.3 0  0.12084633013886 0.3 0  0.1005375673448281 0.3 0  0.08029618164595353 0.3 0  0.06012194778526769 0.3 0  0.04001466495039718 0.3 0  0.01997408913631205 0.3 0  0 0.2800000000000553 0  0 0.2600000000001105 0  0 0.2400000000001658 0  0 0.2200000000002211 0  0 0.2000000000002764 0  0 0.1800000000002244 0  0 0.1600000000001691 0  0 0.140000000000115 0  0 0.1200000000000564 0  1.13346801534201 0.01255848438672509 0  1.003577645172735 0.09351054173913405 0  0.9777559943702486 0.1034978156913738 0  0.9524533750752109 0.1040889939962738 0  0.9296242411226409 0.1041520033606139 0  0.9046110503652111 0.104409422380137 0  0.8777709649694228 0.1053360318797398 0  0.8483859145648608 0.1061007868330701 0  0.8162363822948977 0.1052777104363292 0  0.7893110024210437 0.1060761643971561 0  0.7587949382612539 0.1067265405088633 0  0.7280603867732535 0.1069398153264939 0  0.6947001989413015 0.1075609887579097 0  0.6590363283767549 0.1076715322596598 0  0.6210028614493155 0.1072970410408442 0  1.1953125 0.01353164693413185 0  1.258193991486058 0.01269648635163345 0  1.3201967268638 0.01407907077719561 0  1.383538555392096 0.01434101079053473 0  1.445312500000001 0.01303671693628424 0  1.508925448095738 0.01398525724792267 0  0.9939176689634008 0.1034638089837981 0  1.120967497222226 0.2796788492172345 0  1.572835902117391 0.01424132418857359 0  1.637573277451887 0.01212536916586023 0  1.709730776795181 0.01466855431023635 0  1.005631976950563 0.07074019818158772 0  1.784944696816299 0.01454708406461822 0  0.5805605730631225 0.1101465090472147 0  1.855621181165637 0.01550931272897607 0  0.5366111276616774 0.1096761308243709 0  1.935200147913231 0.01760344159641829 0  1.214922267975168 0.2799787705802257 0  1.31178773425331 0.2792
[...]
<PointData  Scalars="pressure"> 
<DataArray  type="Float64"  Name="pressure"  format="ascii">3.0238275127165029e+01  3.2202100889307246e+01  3.1560264251234130e+01  2.9163119139395523e+01  2.2369924095310978e+01  0.0000000000000000e+00  0.0000000000000000e+00  3.0238298244994603e+01  3.0232349046205453e+01  3.0226518337051221e+01  3.0220781385822189e+01  3.0215136634627264e+01  3.0209582568489370e+01  3.0204117657222046e+01  3.0198740543720479e+01  3.0193449672206192e+01  3.0188243632815407e+01  3.0183121264869779e+01  3.0178080872524916e+01  3.0173121159149240e+01  3.0168241049917000e+01  3.0163439112580804e+01  3.0158713765864640e+01  3.0154064510976927e+01  3.0149489534535537e+01  3.0144987986576108e+01  3.0140558999487766e+01  3.0136201410024373e+01  3.0131912900973138e+01  3.0127694973446804e+01  3.0123545115600383e+01  3.0119463768533940e+01  3.0115451591738868e+01  3.0111501415299013e+01  3.0107621163345129e+01  3.0103806628303683e+01  3.0100058170930957e+01  3.0096375962448899e+01  3.0092761937814235e+01  3.0089217481523839e+01  3.0085737533839293e+01  3.0082326821380313e+01  3.0078994464910870e+01  3.0075736301344069e+01  3.0072528384864686e+01  3.0069423025100729e+01  3.0066418932614159e+01  3.0063449260439754e+01  3.0060641417612413e+01  3.0057897537408415e+01  3.0055178343068498e+01  3.0052689986973522e+01  3.0050266467781519e+01  3.0047947949024412e+01  3.0045772052656442e+01  3.0043772413825483e+01  3.0041890483859795e+01  3.0040192268497979e+01  3.0038723317876560e+01  3.0037413400723427e+01  3.0036263206236338e+01  3.0035424872353047e+01  3.0034816539568183e+01  3.0034506867177921e+01  3.0034469235693461e+01  3.0034570584481436e+01  3.0035640540032009e+01  3.0036567246692986e+01  3.0037809628325689e+01  3.0039760305549080e+01  3.0042182796172710e+01  3.0044987376708125e+01  3.0048966031395558e+01  3.0052912102855217e+01  3.0057443939576061e+01  3.0063009006377893e+01  3.0069775589930259e+01  3.0077363726256937e+01  3.0085269819366349e+01  3.0094779442105093e+01  3.0103993115806471e+01  3.0116659463447203e+01  3.0129957494341468e+01  3.0144121407345629e+01  3.0160244734382868e+01  3.0177655950330124e+01  3.0196715130157916e+01  3.0217997315756861e+01  3.0242722510182233e+01  3.0269433494015093e+01  3.0299163168532026e+01  3.0332275165762809e+01  3.0369049791153977e+01  3.0409979911355450e+01  3.0455245344447142e+01  3.0505825744770938e+01  3.0563034788201708e+01  3.0627972749398584e+01  3.0702591805211927e+01  3.0787569033314487e+01  3.0884490014412812e+01  3.1001382514624282e+01  3.1140525070777350e+01  3.1312520639986513e+01  3.1540389732737896e+01  3.1817182004093215e+01  3.2193797332967293e+01  3.2114091600516247e+01  3.1939912690122053e+01  3.1635544202022292e+01  3.1349990161480950e+01  3.0931494623619145e+01  3.0538917304948406e+01  3.0265773510071813e+01  3.0031460747106735e+01  2.9825964637975471e+01  2.9642522350241730e+01  2.9504713383780569e+01  2.9380272900639476e+01  2.9280991365918915e+01  2.9201307763304651e+01  2.9120795795869217e+01  2.9031167589830446e+01  2.8897811721545267e+01  2.8731984006712946e+01  2.8561491187172376e+01  2.8367806014615923e+01  2.8132402571489507e+01  2.7901729336150989e+01  2.7684213433931035e+01  2.7461094310390919e+01  2.7235071120696944e+01  2.7011091133144578e+01  2.6787041973691814e+01  2.6562999913765619e+01  2.6333992848604428e+01  2.6106279733555386e+01  2.5876055068189739e+01  2.5651465105656577e+01  2.5427628643330948e+01  2.5166130506671802e+01  2.4962079096179664e+01  2.4703546111853115e+01  2.4482286062160934e+01  2.4254253483518330e+01  2.4044344075718890e+01  2.3758164160028862e+01  2.3548650034650308e+01  2.3308819328898622e+01  2.3073857718366238e+01  2.2837215367529865e+01  2.2602891647037669e+01  2.2134572788417852e+01  2.1891778041610721e+01  2.1650065575452071e+01  2.1403599331988278e+01  2.1150247400147379e+01  2.0938869189189369e+01  2.0711935344137817e+01  2.0404831968358820e+01  2.0138162504761361e+01  1.9918398999615302e+01  1.9657076480775611e+01  1.9389146352133466e+01  1.9125247489615663e+01  1.8857426299515495e+01  1.8582208060517587e+01  1.8312015784693607e+01  1.8038360153452331e+01  1.7719499089899102e+01  1.7468998246926084e+01  1.7143523402524941e+01  1.6858876999011670e+01  1.6574493560681304e+01  1.6274817162434438e+01  1.5984732054433941e+01  1.5685368638649630e+01  1.5431549114588565e+01  1.5121989252264209e+01  1.4826882915723802e+01  1.4526615512868322e+01  1.4177445740732868e+01  1.3870053783146657e+01  1.3568323161581713e+01  1.3258434431092075e+01  1.2928094947297380e+01  1.2602997966206802e+01  1.2269041267340423e+01  1.1937208661340533e+01  1.1598693783123558e+01  1.1255545623706485e+01  1.0911747263159087e+01  1.0566155970991698e+01  1.0215652756421324e+01  9.8694854027340426e+00  9.5098665351112324e+00  9.1468249434741526e+00  8.7999239619562175e+00  8.4458444363447889e+00  8.0313120135911511e+00  7.7146735365466128e+00  7.2967645020442262e+00  6.9701541526610917e+00  6.5396281208304714e+00  6.2003331620872695e+00  5.8261174774542139e+00  5.3793156441995320e+00  5.0360203309028533e+00  4.5870873116092898e+00  4.2241746488157466e+00  3.8306049225000964e+00  3.4357030705718254e+00  2.9478446870604560e+00  2.5936246662916762e+00  2.1531330191151334e+00  1.7098331260027528e+00  1.3495978185822426e+00  8.4005560006800062e-01  4.5246000680940757e-01  0.0000000000000000e+00  0.0000000000000000e+00  0.0000000000000000e+00  0.0000000000000000e+00  0.0000000000000000e+00  0.0000000000000000e+00  0.0000000000000000e+00  0.0000000000000000e+00  0.0000000000000000e+00  4.7677430697400225e-01  9.2704857734730794e-01  1.3071658534342856e+00  1.7557915703015576e+00  2.1991168353778052e+00  2.6427391687191557e+00  3.0773828776713130e+00  3.5092013722281417e+00  3.9418831149475726e+00  4.3714207229519060e+00  4.8015342640840739e+00  5.2286347830590350e+00  5.6573160720346900e+00  6.0850454771008113e+00  6.5120302375093040e+00  6.9307200597167524e+00  7.3499924989393550e+00  7.7740327963616238e+00  8.1971115339113894e+00  8.6176860418310230e+00  9.0345127155366960e+00  9.4488533602928175e+00  9.8559106428344965e+00  1.0264215980382312e+01  1.0662116081499146e+01  1.1066394224506036e+01  1.1457177717844852e+01  1.1870447518681706e+01  1.2283771417887444e+01  1.2694172327591929e+01  1.3108504701040109e+01  1.3504723369055588e+01  1.3881832848627463e+01  1.4304498493790437e+01  1.4725370978753173e+01  1.5170717502295048e+01  1.5527596549902446e+01  1.5939023290787981e+01  1.6341262470871197e+01  1.6697275208580436e+01  1.7144636444704705e+01  1.7505734869194480e+01  1.7881045108451648e+01  1.8255925315823340e+01  1.8628279653020009e+01  1.8999018820513310e+01  1.9402064339592997e+01  1.9814094133538003e+01  2.0162321973754960e+01  2.0543353756444311e+01  2.0924683834420254e+01  2.1303716148554418e+01  2.1681879987121274e+01  2.2048739594259729e+01  2.2415816781668063e+01  2.2788018355599423e+01  2.3151112323228482e+01  2.3471791936433281e+01  2.3858319333179079e+01  2.4234579671929950e+01  2.4589168318562706e+01  2.4951223874222986e+01  2.5291636448788541e+01  2.5649509702078362e+01  2.6002027848744863e+01  2.6347283785213865e+01  2.6691300279867466e+01  2.7031663476788587e+01  2.7357168202170271e+01  2.7681736336875510e+01  2.7984864626175231e+01  2.8288768764525717e+01  2.8572544076616808e+01  2.8804208943616906e+01  2.9046454946227705e+01  2.9254138103535940e+01  2.9412715203055129e+01  2.9551786125099749e+01  2.9656219728688910e+01  2.9746464108913745e+01  2.9824029776440863e+01  2.9873240533009945e+01  2.9913099445655053e+01  2.9940319733291197e+01  2.9964221921775930e+01  2.9983245355846904e+01  2.9997663053720860e+01  3.0010490724954796e+01  3.0021317164009723e+01  3.0030749906364306e+01  3.0039390285091685e+01  3.0047149142310033e+01  3.0054680948271074e+01  3.0061872162826017e+01  3.0068764915490416e+01  3.0075553840106004e+01  3.0082243876799897e+01  3.0088837723020688e+01  3.0095351178823087e+01  3.0101829801855526e+01  3.0108267894835908e+01  3.0114674253191534e+01  3.0121056195282399e+01  3.0127410590894510e+01  3.0133741550150358e+01  3.0140052141364325e+01  3.0146340816608820e+01  3.0152610245824768e+01  3.0158858967503107e+01  3.0165088202337870e+01  3.0171297645012292e+01  3.0177487349707974e+01  3.0183657285153419e+01  3.0189807487212878e+01  3.0195937975056172e+01  3.0202048596081912e+01  3.0208139571544159e+01  3.0214210763098503e+01  3.0220262205238164e+01  3.0226293946506196e+01  3.0232305951158132e+01  3.0238298184612656e+01  3.0238297257127122e+01  3.0238294919805668e+01  3.0238291209494179e+01  3.0238286687566415e+01  3.0238282161317581e+01  3.0238278444872265e+01  3.0238276091114251e+01  3.0238275169853619e+01  2.7792231456606295e+01  3.0979939903760336e+01  3.1809928321588334e+01  3.0814667221717148e+01  3.0473793004833571e+01  3.0281058495095365e+01  3.0167261973152566e+01  3.0098600841496914e+01  3.0059624662345787e+01  3.0043324076320083e+01  3.0035427080748612e+01  3.0034358107844856e+01  3.0037830136786816e+01  3.0044637485373443e+01  3.0053870689654133e+01  2.6899154003571567e+01  2.5984842571097339e+01  2.5067693020268884e+01  2.4126704718941706e+01  2.3192469411283856e+01  2.2237750705942890e+01  3.1944005924982037e+01  2.7836087012567940e+01  2.1286200025686270e+01  2.0327068187872335e+01  1.9262149907313798e+01  2.9910623098766834e+01  1.8131632631371367e+01  3.0064838504717880e+01  1.7043731808297704e+01  3.0077476016777236e+01  1.5851910692406278e+01  2.6528313884290181e+01  2.5123894348113087e+01  1.4611462846382029e+01  2.3686686511284631e+01  3.0090972275207200e+01  2.1862732783995828e+01  1.3430095763730518e+01  3.0105702491098299e+01  2.8456201452845626e+01  1.2106902747985281e+01  1.9979406820966837e+01  2.8735725107540006e+01  3.0121068104196834e+01  1.0739630347338247e+01  1.7691135794992409e+01  3.0138564394570817e+01  1.6545584735934696e+01  9.3126294163727277e+00  1.5312012409037704e+01  3.0155865060562043e+01  2.9357624570842368e+01  7.8983482699714145e+00  1.4092308579176889e+01  2.9719133533405188e+01  1.2858198968586064e+01  6.3817850097227824e+00  2.9899596471959406e+01  3.0176076402150283e+01  3.0190098955677808e+01  1.8825482732158505e+01  5.2119981849172579e+00  3.9736765392928000e+00  1.1654709257101311e+01  2.9976455141586253e+01  1.0033668461171088e+01  3.1180332598703377e+01  3.0026234239213991e+01  8.8229543316957972e+00  3.0207554899803892e+01  3.0051205901785202e+01  2.7801617996732775e+00  7.1510972010832932e+00  3.0072414640752509e+01  3.0098790843063075e+01  5.8723316584752805e+00  3.0130582660053872e+01  4.5887092724840057e+00  3.0149534188861658e+01  3.0168300018464652e+01  3.2961105530442296e+00  3.0199887714680578e+01  4.0548183885109679e-01  3.0232708174895841e+01  2.9410603700535361e+01  2.0201354872497030e+00  1.4968615114456207e+00  3.0217687563330802e+01  3.0364643915705148e+01  2.8855436566092340e+01  2.7200267028532171e+01  3.0005935511171540e+01  3.0085087906735289e+01  3.0111154571254819e+01  3.0218010424513633e+01  2.1147331487314439e+01  2.2949272325918212e+01  2.4404351923106873e+01  2.5825058890164524e+01  3.0166133741015749e+01  1.0868207883896501e+01  3.0146948908122130e+01  3.0180535558580473e+01  7.9888099310907572e+00  7.1452115958928539e+00  3.0129240440997215e+01  8.5744813595787583e+00  1.0039960305961735e+01  3.0113716324914325e+01  1.1429466475708852e+01  1.2776629258282311e+01  1.4078590875946290e+01  1.5225358614569384e+01  2.1772414610558045e+01  3.0098202248525759e+01  1.6453817433598765e+01  1.7594842529643763e+01  3.0084023511448706e+01  1.8696268096770225e+01  1.9782527693596734e+01  2.0793117491521429e+01  3.4204741354034557e-01  3.0070597472343252e+01  3.0059588668815000e+01  3.0233041970857776e+01  3.0049233056389017e+01  3.0040875703604826e+01  3.0035592441486269e+01  3.0034229346004718e+01  3.0038299352951856e+01  3.0049891201680168e+01  2.7336755009005511e+01  3.0080005857189960e+01  3.0135060715467922e+01  3.0227751541601986e+01  2.6446498748130971e+01  3.0386153826530801e+01  2.4607242009106834e+01  2.5510249876934861e+01  2.3695746931038911e+01  2.2721817355792744e+01  3.0655205384984878e+01  3.2136650524080949e+01  4.1051992235394663e-01  3.0232556441215596e+01  1.1052302049381342e+00  2.9107031424755231e+01  3.0233290756331318e+01  3.4387343372721346e-01  3.0229202266394459e+01  2.8998585484445258e+01  2.8970920552572135e+01  2.8828507593383755e+01  2.8949729519918620e+01  2.8803471934947535e+01  2.8929740395238930e+01  2.8752689325975702e+01  2.8897145067669317e+01  2.8704301733813214e+01  2.8855947351453263e+01  2.8659559198330012e+01  2.8804373165385581e+01  2.8590941373534456e+01  2.8732560374210131e+01  2.8507561344020832e+01  2.8645267284068986e+01  2.8409470796324324e+01  2.8546859568874236e+01  2.8307469773776415e+01  2.8438117764308650e+01  2.8188556970753634e+01  2.8704051413815620e+01  2.8052140813514796e+01  2.7942181209840516e+01  2.8572709101336084e+01  2.8853336729783759e+01  2.7813558424944237e+01  2.7699200116512049e+01  2.7567490918288435e+01  2.7456207737334310e+01  2.7320820098094362e+01  2.7215583639018838e+01  2.7073803596130784e+01  2.6964305487811338e+01  2.6819724147626903e+01  2.6699798003227144e+01  2.6557136806611318e+01  2.6432407489310876e+01  2.6291813480735733e+01  2.6164433251366791e+01  2.6020409145965949e+01  2.5891108025777140e+01  2.5746303722877936e+01  2.5615168800196738e+01  2.5467751930317437e+01  2.5334409511612495e+01  2.5184925186252624e+01  2.5051568797064991e+01  2.4900039600468407e+01  2.4765310508221965e+01  2.4613883773965458e+01  2.4477331257877434e+01  2.4312591112660730e+01  2.8697865561543324e+01  2.8960832616018990e+01  2.4188024388698931e+01  2.4017908918888796e+01  2.3892833413094515e+01  2.3736048877518975e+01  2.3600897532741136e+01  2.3440390161639968e+01  2.3305823919405473e+01  2.3143576964786249e+01  2.7815316902414633e+01  2.3014270295285812e+01  2.2844787062355802e+01  2.2698725811258171e+01  2.2540907813349605e+01  2.2409573773819083e+01  2.2240877857173999e+01  2.8804319824026138e+01  2.9088816146177074e+01  2.8958132949696093e+01  2.2106925197477885e+01  2.1936811723276634e+01  2.1802860555430001e+01  2.1631714255609964e+01  2.1497718766786264e+01  2.1326027454840609e+01  2.9143004929652442e+01  2.1189851241252885e+01  2.1017080033115043e+01  2.7121247622368045e+01  2.0878110579413299e+01  2.0706258656464374e+01  2.0566150783858490e+01  2.0393410258795928e+01  2.0250758409011627e+01  2.0078226290115712e+01  2.8370099079608952e+01  2.6305279898674183e+01  1.9933421473438035e+01  1.9760076105897294e+01  2.8894207760408378e+01  2.9135842343803780e+01  2.8642461317030097e+01  2.5468885217454194e+01  1.9612107310931204e+01  1.9432678515647517e+01  1.9287767101534147e+01  1.9103593153605626e+01  1.8960766746517713e+01  1.8780296427349516e+01  2.2069968396809159e+01  1.9572981110526683e+01  2.1156225627009334e+01  2.2979590193926676e+01  1.8633638031307559e+01  1.8454633449661745e+01  1.8602701478101153e+01  1.8278973497853780e+01  1.8126739246029572e+01  1.7954330863426367e+01  1.7796907590337561e+01  1.7619623807644643e+01  1.7463524280871347e+01  1.7277860663614231e+01  1.7127862691524825e+01  1.6938387710151243e+01  1.6790130402232204e+01  1.6598126386110781e+01  1.6451721758768848e+01  1.6256892120019891e+01  1.6109342072526282e+01  1.5913781419501911e+01  1.5765127167902559e+01  1.5568373508967831e+01  1.5418091480943961e+01  1.5222208730771712e+01  1.5068535317051646e+01  1.4872576624841463e+01  2.3856924663668472e+01  2.4637557047864576e+01  1.4714418741324776e+01  1.4521028756330441e+01  1.4356101405217942e+01  1.4163365033777772e+01  2.7187945420095705e+01  2.5319378306615850e+01  1.3990420524276844e+01  1.3802466302980442e+01  2.6148345401284061e+01  2.3785922477317683e+01  2.8958599204847559e+01  2.9184542935916713e+01  2.9391929398005232e+01  2.9398266917681820e+01  2.9594851920114859e+01  2.9577657649926152e+01  2.9796378914621020e+01  2.9730768306252095e+01  2.9904711300040436e+01  2.9843850025980050e+01  3.0007312472760933e+01  2.9925989023143025e+01  3.0061821096630812e+01  2.9982262923151644e+01  3.0095334054966390e+01  3.0020214440614886e+01  3.0111492112997151e+01  3.0042475808294455e+01  3.0115109556032941e+01  3.0052980691252511e+01  3.0110563731995931e+01  3.0056956839707805e+01  3.0102360686494762e+01  3.0056021109963403e+01  3.0092068848918512e+01  3.0052628552648798e+01  3.0080365704909962e+01  3.0046721573821927e+01  3.0019716530224080e+01  3.0021313481353967e+01  3.0042801317218817e+01  3.0021962435847140e+01  3.0041149063259446e+01  3.0022108356892208e+01  3.0036985544862848e+01  3.0021611322078076e+01  2.9901353913107734e+01  2.9993103265168031e+01  3.0003902438160807e+01  3.0033766877838350e+01  3.0021276244247442e+01  3.0008636609169898e+01  3.0010886008880743e+01  3.0021179065074158e+01  3.0013564550138682e+01  3.0021381930218492e+01  3.0015408086567383e+01  3.0021774579579649e+01  3.0016861664662940e+01  3.0004623379433699e+01  2.9803704085523812e+01  3.0170530163665632e+01  3.0022406584032257e+01  3.0018822163095884e+01  3.0013348598897025e+01  3.0016281703660841e+01  3.0020979674368057e+01  3.0019418558874438e+01  3.0023280747479824e+01  3.0022434869533292e+01  3.0209400950913277e+01  3.0015163389039309e+01  3.0025723296299553e+01  3.0025483648771409e+01  3.0178566036469384e+01  3.0028238287849732e+01  3.0028526688205577e+01  3.0025597061619166e+01  3.0029387050011476e+01  3.0031791763059346e+01  3.0033121718392948e+01  3.0030734234721979e+01  3.0034818435102419e+01  3.0036846689042854e+01  3.0038812422984584e+01  3.0040589172853409e+01  3.0042853387035727e+01  3.0041102400876056e+01  3.0045307440539531e+01  3.0046885939868208e+01  3.0049453145067947e+01  3.0050833632075939e+01  3.0053538881888223e+01  2.9410583344620768e+01  3.0063600681291359e+01  3.0135872942211474e+01  3.0054720327955167e+01  3.0057573305227535e+01  3.0056420280512960e+01  3.0060672591975134e+01  3.0061738751546486e+01  3.0064894376996548e+01  3.0059560658238890e+01  1.3625286065493500e+01  1.3440878059353963e+01  1.3262427304217463e+01  1.3074294013613462e+01  1.2895123862018224e+01  1.2705804622834007e+01  3.0029559591669898e+01  2.2281011880078569e+01  2.9067961451129452e+01  3.0065928907092498e+01  3.0069062380169321e+01  3.0048876077008263e+01  1.6747154855245473e+01  1.5037456077693305e+01  1.8430605854257433e+01  1.2526662623572825e+01  1.2339317027040517e+01  1.2519419059988175e+01  1.2154279642757761e+01  1.1973134636286456e+01  1.1786247046995372e+01  1.1606531507454427e+01  1.1415502105851818e+01  1.1238601754448263e+01  1.1048374830265335e+01  1.0869531926207936e+01  1.0675265849395551e+01  1.0497551806566246e+01  1.0294786419273207e+01  1.0122320853266693e+01  9.9156020992210436e+00  9.7438542131929697e+00  9.5347566947706088e+00  9.3676390879811535e+00  9.1524547104374481e+00  8.9838266193221656e+00  8.7671385238479846e+00  8.5913738722993056e+00  8.3781615138183785e+00  8.2002898296949720e+00  7.9870922640413058e+00  7.8067509413200264e+00  7.5934353963086583e+00  7.4098646844605307e+00  7.1970464505288367e+00  6.9989214219574052e+00  6.7960624792794633e+00  1.3609985048280004e+01  3.0043566095294942e+01  3.0025371108808891e+01  3.0070175689978786e+01  3.0073332023271615e+01  3.0072249793664948e+01  3.0076698249823931e+01  3.0075589795121562e+01  3.0080159885433126e+01  3.0081119102117405e+01  3.0084614599748324e+01  3.0085675706770562e+01  3.0089154850473303e+01  3.0088202342865081e+01  3.0092737691227139e+01  3.0093538771757828e+01  3.0097232764123149e+01  3.0098015383664414e+01  3.0101746238306863e+01  3.0100956323797149e+01  3.0105549366432030e+01  3.0106296410424186e+01  3.0110121272788064e+01  2.9012724217240180e+01  3.0027221045648339e+01  6.6124396923689552e+00  6.3966858907478059e+00  6.2143993184926183e+00  5.9938339547827306e+00  5.8187286503584028e+00  5.5865753191116854e+00  2.1350145829439388e+01  2.0391045447188606e+01  3.0110997724790643e+01  3.0114775974577810e+01  3.0113993269024963e+01  3.0118635228611538e+01  3.011929356