<?xml version="1.0"?>
<VTKFile type="UnstructuredGrid"  version="0.1"  >
<UnstructuredGrid>
<Piece  NumberOfPoints="2705" NumberOfCells="5060">
<Points>
<DataArray  type="Float64"  NumberOfComponents="3"  format="ascii">0 0.1 0  0.98 0.1 0  1 0.1 0  1 0 0  3 0 0  3 0.3 0  0 0.3 0  0.01975375321854102 0.1 0  0.03918897458218897 0.1 0  0.05831079002627837 0.1 0  0.07712425666319796 0.1 0  0.0956343475259058 0.1 0  0.1138459546796227 0.1 0  0.1317638870668193 0.1 0  0.1493928840275937 0.1 0  0.1667376092280033 0.1 0  0.1838026357802664 0.1 0  0.2005924801287244 0.1 0  0.2171115811543574 0.1 0  0.2333643037107681 0.1 0  0.2493549444060462 0.1 0  0.2650877293306821 0.1 0  0.2805668058011438 0.1 0  0.2957962848620976 0.1 0  0.3107801766802674 0.1 0  0.3255224447361181 0.1 0  0.3400269848175519 0.1 0  0.3542976327080778 0.1 0  0.3683381609158136 0.1 0  0.3821522744564845 0.1 0  0.3957436316838916 0.1 0  0.4091158196437086 0.1 0  0.4222723742184605 0.1 0  0.4352167733293057 0.1 0  0.4479524348643424 0.1 0  0.4604827295467524 0.1 0  0.4728109659990664 0.1 0  0.4849404035409129 0.1 0  0.4968742471455402 0.1 0  0.508615651843175 0.1 0  0.520167721130924 0.1 0  0.5315335063628542 0.1 0  0.5427160117228604 0.1 0  0.5537181940261912 0.1 0  0.564542961924507 0.1 0  0.575193173270606 0.1 0  0.5856716438765114 0.1 0  0.5959811458006617 0.1 0  0.6061243988680743 0.1 0  0.6161040893285659 0.1 0  0.6259228503970299 0.1 0  0.6355832809287655 0.1 0  0.6450879281079505 0.1 0  0.6544393102991295 0.1 0  0.663639896558931 0.1 0  0.6726921201956305 0.1 0  0.6815983691630338 0.1 0  0.6903610031396646 0.1 0  0.6989823343332418 0.1 0  0.7074646404270378 0.1 0  0.7158101645005117 0.1 0  0.7240211149852543 0.1 0  0.7320996585612525 0.1 0  0.7400479319727645 0.1 0  0.7478680336617921 0.1 0  0.755562036504958 0.1 0  0.7631319665092091 0.1 0  0.7705798279317605 0.1 0  0.777907588066146 0.1 0  0.7851171851013118 0.1 0  0.7922105226004981 0.1 0  0.7991894774550319 0.1 0  0.8060558928136696 0.1 0  0.812811583201334 0.1 0  0.8194583352091183 0.1 0  0.8259979035038147 0.1 0  0.8324320194413813 0.1 0  0.8387623808293405 0.1 0  0.8449906627004957 0.1 0  0.8511185094880469 0.1 0  0.8571475426008311 0.1 0  0.8630793533568246 0.1 0  0.8689155114558531 0.1 0  0.8746575581239063 0.1 0  0.8803070109173519 0.1 0  0.885865363938836 0.1 0  0.8913340851680313 0.1 0  0.8967146206523592 0.1 0  0.9020083930695622 0.1 0  0.9072167995950768 0.1 0  0.9123412183131177 0.1 0  0.9173830029719022 0.1 0  0.9223434865647732 0.1 0  0.9272239785872722 0.1 0  0.9320257720706087 0.1 0  0.9367501330378739 0.1 0  0.9413983102716995 0.1 0  0.9459715351562933 0.1 0  0.9504710127113115 0.1 0  0.9548979346500661 0.1 0  0.9592534708344373 0.1 0  0.9635387708980176 0.1 0  0.9677549682252325 0.1 0  0.971903177251235 0.1 0  0.9759844952956497 0.1 0  0.9840000000000086 0.1 0  0.987999999999974 0.1 0  0.9919999999999393 0.1 0  0.9959999999999913 0.1 0  1 0.09591793123533533 0  1 0.09133596463859224 0  1 0.08619288104391448 0  1 0.08041996484521211 0  1 0.07394008421771697 0  1 0.06666666567302955 0  1 0.05850252932209174 0  1 0.04933859630113544 0  1 0.03905242821848202 0  1 0.02750659386753798 0  1 0.01454683679239736 0  1.016020550394751 0 0  1.032153385236268 0 0  1.048399294954455 0 0  1.064759072477566 0 0  1.081233515533994 0 0  1.097823427949778 0 0  1.114529617202262 0 0  1.131352900433151 0 0  1.148294101583001 0 0  1.165354040242892 0 0  1.182533552515274 0 0  1.199833475866261 0 0  1.217254652230041 0 0  1.234797936155386 0 0  1.252464178425587 0 0  1.270254255168802 0 0  1.288169006479837 0 0  1.306209325437119 0 0  1.324376095845444 0 0  1.342670189274758 0 0  1.36109251192469 0 0  1.379643952662183 0 0  1.398325417002887 0 0  1.41713782425084 0 0  1.436082080652155 0 0  1.455159124826087 0 0  1.474369882349725 0 0  1.493715277083147 0 0  1.513196265767424 0 0  1.532813806019548 0 0  1.552568842185085 0 0  1.572462339217603 0 0  1.592495269056204 0 0  1.612668607023916 0 0  1.632983343549927 0 0  1.653440462592259 0 0  1.674040969525434 0 0  1.694785855791528 0 0  1.715676155173469 0 0  1.73671286736412 0 0  1.757897026351256 0 0  1.779229664888713 0 0  1.800711824755784 0 0  1.82234455324737 0 0  1.84412890624001 0 0  1.866065945376083 0 0  1.888156733760833 0 0  1.910402369606354 0 0  1.93280391688052 0 0  1.955362477143487 0 0  1.978079144436244 0 0  2.000955036197599 0 0  2.023991269446432 0 0  2.047188964767926 0 0  2.0705492490968 0 0  2.094073263768322 0 0  2.117762156205791 0 0  2.141617082624289 0 0  2.16563921705895 0 0  2.189829717267639 0 0  2.214189770072521 0 0  2.238720556051706 0 0  2.263423288009975 0 0  2.288299155588418 0 0  2.313349376228164 0 0  2.338575176964319 0 0  2.363977783618623 0 0  2.389558433680938 0 0  2.415318384393194 0 0  2.441258882154933 0 0  2.467381196024248 0 0  2.493686599690135 0 0  2.520176385407638 0 0  2.546851827526312 0 0  2.573714242586076 0 0  2.600764942577301 0 0  2.628005231328753 0 0  2.655436452882501 0 0  2.683059932630583 0 0  2.710877029970518 0 0  2.73888909859219 0 0  2.767097496229523 0 0  2.79550361535459 0 0  2.824108829114479 0 0  2.852914536031111 0 0  2.881922140827726 0 0  2.911133056443728 0 0  2.940548720418847 0 0  2.970170550362583 0 0  3 0.02999999999994495 0  3 0.05999999999987042 0  3 0.089999999999783 0  3 0.119999999999701 0  3 0.149999999999619 0  3 0.179999999999692 0  3 0.2099999999997737 0  3 0.2399999999998511 0  3 0.2699999999999185 0  2.970138294777171 0.3 0  2.940375666438236 0.3 0  2.910711782853056 0.3 0  2.881146331305122 0.3 0  2.851678975030285 0.3 0  2.822309388626621 0.3 0  2.793037250095074 0.3 0  2.76386223529133 0.3 0  2.734784017903872 0.3 0  2.705802289276642 0.3 0  2.676916713794697 0.3 0  2.648126987654635 0.3 0  2.619432780406184 0.3 0  2.590833779385199 0.3 0  2.562329669847737 0.3 0  2.533920134950189 0.3 0  2.505604855727852 0.3 0  2.477383539822502 0.3 0  2.449255847639465 0.3 0  2.421221492569094 0.3 0  2.393280152486815 0.3 0  2.36543151914496 0.3 0  2.337675285481809 0.3 0  2.310011142385583 0.3 0  2.282438797441587 0.3 0  2.254957931061538 0.3 0  2.227568248063605 0.3 0  2.200269436651085 0.3 0  2.173061204949961 0.3 0  2.145943251515011 0.3 0  2.118915272469994 0.3 0  2.091976978084957 0.3 0  2.065128060700849 0.3 0  2.038368218849433 0.3 0  2.01169717777258 0.3 0  1.985114624111908 0.3 0  1.958620267850966 0.3 0  1.93221382054972 0.3 0  1.905894991850698 0.3 0  1.879663489459713 0.3 0  1.853519019126419 0.3 0  1.827461291053897 0.3 0  1.801490031354372 0.3 0  1.775604937580312 0.3 0  1.74980572560258 0.3 0  1.724092118631866 0.3 0  1.698463829173586 0.3 0  1.672920575782554 0.3 0  1.647462076974085 0.3 0  1.622088043536933 0.3 0  1.5967981978949 0.3 0  1.571592267767068 0.3 0  1.546469970305736 0.3 0  1.521431023814044 0.3 0  1.496475156230927 0.3 0  1.471602093687753 0.3 0  1.446811560490646 0.3 0  1.422103279101731 0.3 0  1.397476971708191 0.3 0  1.37293238939876 0.3 0  1.348469231419202 0.3 0  1.324087248732772 0.3 0  1.299786165921677 0.3 0  1.275565710847046 0.3 0  1.251425617644257 0.3 0  1.227365618676339 0.3 0  1.203385446174014 0.3 0  1.179484853067473 0.3 0  1.155663548773374 0.3 0  1.131921292279077 0.3 0  1.108257802159295 0.3 0  1.084672829009693 0.3 0  1.061166115303374 0.3 0  1.037737392995421 0.3 0  1.01438640299116 0.3 0  0.991112899770314 0.3 0  0.9679166155523955 0.3 0  0.944797284182564 0.3 0  0.921754678526042 0.3 0  0.8987885143602501 0.3 0  0.8758985548820624 0.3 0  0.8530845484099929 0.3 0  0.8303462351786988 0.3 0  0.8076833651172373 0.3 0  0.7850956864865304 0.3 0  0.7625829601354557 0.3 0  0.7401449314598274 0.3 0  0.717781337993959 0.3 0  0.6954919649675473 0.3 0  0.6732765357561226 0.3 0  0.6511348120768439 0.3 0  0.6290665642016573 0.3 0  0.6070715355430467 0.3 0  0.5851494825775325 0.3 0  0.5633001690203812 0.3 0  0.5415233562273221 0.3 0  0.5198187909431873 0.3 0  0.4981862401387795 0.3 0  0.4766254686134248 0.3 0  0.4551362360485234 0.3 0  0.4337182975262159 0.3 0  0.4123714223228037 0.3 0  0.3910953802377493 0.3 0  0.3698899313205595 0.3 0  0.3487548463710963 0.3 0  0.3276898864081783 0.3 0  0.3066948129116018 0.3 0  0.2857694003037476 0.3 0  0.2649134227095047 0.3 0  0.2441266417321288 0.3 0  0.2234088223399122 0.3 0  0.2027597568977288 0.3 0  0.1821792020676698 0.3 0  0.1616669305402443 0.3 0  0.1412227158799362 0.3 0  0.12084633013886 0.3 0  0.1005375673448281 0.3 0  0.08029618164595353 0.3 0  0.06012194778526769 0.3 0  0.04001466495039718 0.3 0  0.01997408913631205 0.3 0  0 0.2800000000000553 0  0 0.2600000000001105 0  0 0.2400000000001658 0  0 0.2200000000002211 0  0 0.2000000000002764 0  0 0.1800000000002244 0  0 0.1600000000001691 0  0 0.140000000000115 0  0 0.1200000000000564 0  1.139147342155451 0.01402312796110374 0  1.003846432965526 0.09424410338552042 0  0.9779237415493457 0.10303715329271 0  0.9525322729471357 0.1037883113413676 0  0.9297268847131464 0.1045730213771781 0  0.9046089814431624 0.104336569409788 0  0.877471620806838 0.1038902524152954 0  0.8484650538876116 0.1052432520737866 0  0.8159640469246969 0.1059371394421246 0  0.7886638538509052 0.1060934813339016 0  0.7587098578963086 0.1078079872398564 0  0.7267218807318911 0.1066246423921731 0  0.6933049262001144 0.1065261986562333 0  0.6579684410383846 0.1078243939978959 0  0.6214208701021879 0.1087048760815267 0  0.9941749516486179 0.1037853116611355 0  1.120978489398116 0.279674477539142 0  1.208544064048151 0.01503467720016028 0  1.277910333952869 0.01779594515292307 0  1.351715717346224 0.01850593010538557 0  1.427966398080389 0.0186283585208804 0  1.50319238505989 0.01550695005010656 0  0.5804324085735586 0.1090014561521007 0  1.005955353234479 0.07030337494537306 0  1.582478804136902 0.01728864997636526 0  0.5372897138364388 0.1092087118973372 0  1.663740716058847 0.0177784735569346 0  0.4914692535170423 0.110729061919444 0  1.747243287282295 0.01944243088977818 0  1.238974330067154 0.2790657993464123 0  1.834291106016765 0.02121111407792533 0  0.44060840912
[...]
<PointData  Scalars="pressure"> 
<DataArray  type="Float64"  Name="pressure"  format="ascii">2.0207530805166446e-01  -1.2916581459882889e-01  -1.9191819084136039e-01  -1.2869603773271479e-01  0.0000000000000000e+00  0.0000000000000000e+00  2.0208111407079624e-01  1.9614918306762980e-01  1.9031856049285575e-01  1.8458188384585028e-01  1.7893761895301710e-01  1.7338426792044054e-01  1.6792035463601390e-01  1.6254440103405435e-01  1.5725502217059678e-01  1.5205074268590024e-01  1.4693022388700133e-01  1.4189209052574958e-01  1.3693492982921876e-01  1.3205746126035736e-01  1.2725837110638483e-01  1.2253631234307635e-01  1.1789005756787752e-01  1.1331834057476090e-01  1.0881981510566097e-01  1.0439336730173944e-01  1.0003771853220909e-01  9.5751610619083521e-02  9.1533973653299044e-02  8.7383506830249411e-02  8.3299122044821164e-02  7.9279653377110570e-02  7.5323914265247233e-02  7.1430779847733508e-02  6.7599145864840934e-02  6.3827897748289120e-02  6.0115936045354722e-02  5.6462117997219147e-02  5.2865436069686592e-02  4.9324754165533197e-02  4.5839029644410494e-02  4.2407197916825276e-02  3.9028160736254973e-02  3.5700937280788908e-02  3.2424416632164742e-02  2.9197667195095901e-02  2.6019551741767274e-02  2.2889148963167183e-02  1.9805339592422037e-02  1.6767234880447863e-02  1.3773800475169719e-02  1.0823931344740906e-02  7.9167205966173080e-03  5.0512421582132100e-03  2.2265547757798184e-03  -5.5858911721030728e-04  -3.3047276102925616e-03  -6.0129861280734222e-03  -8.6847934016217546e-03  -1.1320503694456851e-02  -1.3920663068053453e-02  -1.6487055269631800e-02  -1.9020883219910641e-02  -2.1521655963390399e-02  -2.3990864949823398e-02  -2.6430334026503893e-02  -2.8839853978505310e-02  -3.1220389853110035e-02  -3.3572979546537554e-02  -3.5898603480446004e-02  -3.8197859761362869e-02  -4.0472005506656299e-02  -4.2721163829087888e-02  -4.4946567010578031e-02  -4.7148895193505694e-02  -4.9328961332702613e-02  -5.1487383013866045e-02  -5.3624764489814382e-02  -5.5742426093714124e-02  -5.7840069001288047e-02  -5.9919337039937293e-02  -6.1980608682164970e-02  -6.4024415253175329e-02  -6.6050389545896329e-02  -6.8060292728472305e-02  -7.0054915245238977e-02  -7.2034060792167121e-02  -7.3998214840257329e-02  -7.5947616411035146e-02  -7.7883551031970838e-02  -7.9805109454434295e-02  -8.1713220586758575e-02  -8.3608302800633402e-02  -8.5489834413577021e-02  -8.7357335548279319e-02  -8.9212241743582402e-02  -9.1050600415202174e-02  -9.2876540566278587e-02  -9.4685151941729565e-02  -9.6475252672566292e-02  -9.8247166260545318e-02  -9.9990445609603934e-02  -1.0166254945271737e-01  -1.0391127021499803e-01  -1.0250842212347988e-01  -1.0244370395347438e-01  -8.8774665435054093e-02  -9.4544697920496995e-02  -9.7568128460345321e-02  -1.7340966102133354e-01  -1.5191489299030064e-01  -1.4397559412291649e-01  -1.3884903532661183e-01  -1.3528200306832061e-01  -1.3264010258253428e-01  -1.3065637615557901e-01  -1.2920556208750389e-01  -1.2832225072815384e-01  -1.2805151057695949e-01  -1.2840990447446815e-01  -1.2903786740912584e-01  -1.2932885934994975e-01  -1.2898982844012785e-01  -1.2824596007900335e-01  -1.2719384939449108e-01  -1.2595153537762493e-01  -1.2450037887796472e-01  -1.2285138241356196e-01  -1.2096584678909432e-01  -1.1879951596555925e-01  -1.1629048781554786e-01  -1.1337107331094780e-01  -1.0997513437433087e-01  -1.0606244750412001e-01  -1.0160707474879996e-01  -9.6597880922708532e-02  -9.1074379734720795e-02  -8.5108325829458528e-02  -7.8778876881766977e-02  -7.2194517301950908e-02  -6.5454333199007356e-02  -5.8674074092512504e-02  -5.1951235744762299e-02  -4.5348996841455186e-02  -3.8913697813912053e-02  -3.2675013084403140e-02  -2.6627056252466454e-02  -2.0731657136862428e-02  -1.4961181257408107e-02  -9.2818817439580814e-03  -3.6643713832066865e-03  1.9026336296025733e-03  7.3963731342470687e-03  1.2782015109718801e-02  1.7998623937516355e-02  2.2964791697584495e-02  2.7588655296891515e-02  3.1790638816780313e-02  3.5497619336317406e-02  3.8674345242048831e-02  4.1301897259081899e-02  4.3380619595237625e-02  4.4979592646155052e-02  4.6150423264182672e-02  4.6985989924916066e-02  4.7587455796320906e-02  4.8022527806755595e-02  4.8370423395272845e-02  4.8676363579811734e-02  4.8961186627625372e-02  4.9220689452331635e-02  4.9423898347138888e-02  4.9527005627508981e-02  4.9491990659022773e-02  4.9271932149367169e-02  4.8844712249561932e-02  4.8207486092896115e-02  4.7376107698522289e-02  4.6390268819025089e-02  4.5302593523221434e-02  4.4178814393967904e-02  4.3072517257331827e-02  4.2025607061104989e-02  4.1062154329210572e-02  4.0179676874176402e-02  3.9350406867175808e-02  3.8531687807087781e-02  3.7664308786621102e-02  3.6703467727352744e-02  3.5605292326523243e-02  3.4352234115171222e-02  3.2943808245529574e-02  3.1411590177254575e-02  2.9793648667993191e-02  2.8131501288849670e-02  2.6480511761638806e-02  2.4865955738920833e-02  2.3288737719257366e-02  2.1744133382029726e-02  2.0198377279091372e-02  1.8602954975034895e-02  1.6925124302534650e-02  1.5129669281532525e-02  1.3190412388006447e-02  1.1137326931663799e-02  8.9797231254078059e-03  6.7498466044647841e-03  4.5183043530703064e-03  2.2628345193851959e-03  0.0000000000000000e+00  0.0000000000000000e+00  0.0000000000000000e+00  0.0000000000000000e+00  0.0000000000000000e+00  0.0000000000000000e+00  0.0000000000000000e+00  0.0000000000000000e+00  0.0000000000000000e+00  2.4751311532480768e-03  4.7542198613147015e-03  6.9290850450998151e-03  9.0228980213418967e-03  1.1074998471389720e-02  1.3126600450352060e-02  1.5206911040401106e-02  1.7320034148145563e-02  1.9442437535259319e-02  2.1539422232575958e-02  2.3550789776102941e-02  2.5428182201868058e-02  2.7128111217632978e-02  2.8634453654751962e-02  2.9959953329662489e-02  3.1142476925973890e-02  3.2235623367172346e-02  3.3298961541955358e-02  3.4375753364251589e-02  3.5481600926856989e-02  3.6603030022201957e-02  3.7686292428450861e-02  3.8658125681462173e-02  3.9433657921565377e-02  3.9938821189910274e-02  4.0123805410221355e-02  3.9981147756895610e-02  3.9543114200380501e-02  3.8871517022440766e-02  3.8055528871830432e-02  3.7174337471215436e-02  3.6289375410475569e-02  3.5422894600478212e-02  3.4547283734651518e-02  3.3591233346519186e-02  3.2455835275255501e-02  3.1034483675591917e-02  2.9240165907931118e-02  2.7019449352735366e-02  2.4379526998550952e-02  2.1368157645885785e-02  1.8091259171145270e-02  1.4670383982214126e-02  1.1204961179109657e-02  7.7776691637706629e-03  4.4220465811330677e-03  1.1262051197289389e-03  -2.2059194700532665e-03  -5.6655003134444487e-03  -9.3535611141094595e-03  -1.3351632388860293e-02  -1.7696486920286619e-02  -2.2379411884800769e-02  -2.7349511652018314e-02  -3.2521446661565652e-02  -3.7808735357917997e-02  -4.3034279679317826e-02  -4.8182348367934620e-02  -5.3149996250173512e-02  -5.7864588274111520e-02  -6.2330213802602424e-02  -6.6503655118192700e-02  -7.0415764426761451e-02  -7.4044776093791384e-02  -7.7364992639317023e-02  -8.0367445019622022e-02  -8.3001183491790892e-02  -8.5208389659495870e-02  -8.6904706938287821e-02  -8.7998373292582074e-02  -8.8414199301316068e-02  -8.8014098575717695e-02  -8.6901118288928506e-02  -8.5012169380969962e-02  -8.2497132422779881e-02  -7.9081432112650507e-02  -7.5188005445803160e-02  -7.0706492780352972e-02  -6.5823035520510609e-02  -6.0562100724870546e-02  -5.5038189136018302e-02  -4.9257218965726664e-02  -4.3321991651659286e-02  -3.7241605263342421e-02  -3.1030408617015715e-02  -2.4742852337583037e-02  -1.8388964165886416e-02  -1.1985491820787423e-02  -5.5406526969712568e-03  9.2652196792863191e-04  7.4096195854804325e-03  1.3900879124271147e-02  2.0396185875705439e-02  2.6888464257862954e-02  3.3376261881807645e-02  3.9854319587530010e-02  4.6320791209408602e-02  5.2774985207861357e-02  5.9214414970463175e-02  6.5637528932042638e-02  7.2043827904408747e-02  7.8432858862181043e-02  8.4803199907397236e-02  9.1154685982156328e-02  9.7487053430346887e-02  1.0379998047099039e-01  1.1009321699925396e-01  1.1636642675852210e-01  1.2261974063070855e-01  1.2885294995123323e-01  1.3506599195336455e-01  1.4125886114595324e-01  1.4743153540393439e-01  1.5358404262194975e-01  1.5971639718545658e-01  1.6582858809709639e-01  1.7192069032329557e-01  1.7799272596023807e-01  1.8404473792314263e-01  1.9007677599160508e-01  1.9608888798864280e-01  2.0208109869339555e-01  2.0208085815372726e-01  2.0208026622832387e-01  2.0207933617061521e-01  2.0207821147710581e-01  2.0207708518497300e-01  2.0207615835957490e-01  2.0207556290272333e-01  2.0207532469315376e-01  -1.2165779374192252e-01  -1.5777770621452089e-01  -1.0800815613873049e-01  -9.5595742398206396e-02  -8.6542154725333942e-02  -7.6972592903606016e-02  -6.7091558333658083e-02  -5.6971244081263195e-02  -4.6023092297908276e-02  -3.7073121573081673e-02  -2.7454531674466140e-02  -1.7348239876606636e-02  -6.9354577956515654e-03  3.9596460205128360e-03  1.5140100860299599e-02  -1.1864691890620224e-01  -8.7684458991876241e-02  -1.1155769576931744e-01  -9.4367383231087759e-02  -6.9129032875915417e-02  -4.1927780865232474e-02  -1.8232788386940330e-02  2.7604495770809933e-02  -1.3452587465814889e-01  4.1565145182913075e-03  4.0665127426048393e-02  2.4788329538725784e-02  5.4492511803537751e-02  3.9611075754881445e-02  -7.8232531881559597e-02  4.6298923450458211e-02  6.9807426177466048e-02  -5.5053908358065715e-02  4.8240217472795471e-02  -1.2594751262461357e-01  -8.5637849121091500e-02  8.4846183102500417e-02  4.9271426944262071e-02  -2.4334133714085285e-02  4.8445959852619222e-02  1.0211373066262354e-01  -7.3841239927637265e-03  4.4684600962885380e-02  1.2429183448236911e-02  1.1987277029250938e-01  -7.6906800210438026e-02  4.0526469456557079e-02  2.2814851290264688e-02  -6.3309747187383969e-02  3.7183591127711010e-02  -4.6262387013645677e-02  3.1776583903274938e-02  1.3984443961664991e-01  1.5468950342474810e-01  3.4872568063068328e-02  -6.7831378521915939e-02  -3.9863630664026303e-02  3.2255720604453732e-02  3.1650339105228653e-03  2.7355963369631836e-02  -2.8278587188941624e-02  -1.0067215034563588e-01  3.8314792571485734e-02  -2.3448480973613964e-03  3.9978707180524695e-02  2.2520135709959192e-02  1.7090030711781518e-01  1.6862150676195928e-02  3.8114780604033657e-02  1.7809438108848111e-02  3.7016414483309085e-02  1.2230673903590981e-02  3.4759814646716583e-02  6.2196077912464023e-02  3.0455631130166007e-02  9.4198233339680137e-02  2.6249774698250770e-02  1.1382668901940736e-01  1.3195958278828634e-01  2.0460834864419974e-02  1.3994509075856105e-02  1.6334518208965340e-01  1.8505477088714038e-03  1.9709222075510227e-01  -1.2930725296710374e-01  7.8724247423163016e-03  1.8101875016687238e-01  -1.4168016123654673e-01  -1.2813509186422953e-01  -8.5528934300728957e-02  -1.5111929268332743e-02  4.9549922051326731e-02  -1.1730988767983080e-01  7.4887259215283289e-02  1.8174946019629179e-01  1.2970579338250396e-01  -1.5197952383137247e-02  1.1155870561734660e-01  1.4459649914708086e-01  2.8151361186571758e-02  3.6579390064120018e-02  7.8461345951203344e-03  9.3701972974713166e-02  3.9643603855675773e-02  3.2636758895120833e-02  3.5021084330085953e-02  7.7091491932293102e-02  3.8863655377001323e-02  4.2466446637395787e-02  4.6832978413085376e-02  4.9242024295190416e-02  4.8825445479413872e-02  6.1813472736787292e-02  4.7522325206423723e-02  4.3877965515229093e-02  3.3027917506433462e-02  1.4881684812720897e-02  4.7534691827615272e-02  -6.8963674723343787e-03  -2.9912783940531939e-02  -5.5433624643750887e-02  -8.2402148757002094e-02  1.7591750870091839e-03  -1.0382997640727422e-01  3.4059286196318345e-02  2.1342311282136803e-02  1.9667235338206315e-01  9.0487037806030613e-03  -2.0766804844229748e-03  -1.3003967127739666e-02  -2.2903461628622595e-02  -3.2377448249361486e-02  -4.1623460693260048e-02  -5.2650522803946748e-02  -6.3064993481184661e-02  -7.3073281107414470e-02  -8.2899824242212455e-02  -9.2068156322792208e-02  -9.9479464278464214e-02  1.9886421575941123e-03  1.9720177095644564e-01  -1.2881812700433137e-01  1.9781015373716040e-01  1.8470668176351962e-03  3.5985032054084432e-03  1.9300694632873677e-01  -1.2865628725169739e-01  -1.2832558231566557e-01  -1.2764772915786396e-01  -1.2816133964269216e-01  -1.2745168481434022e-01  -1.2823694742063002e-01  -1.2738831322729993e-01  -1.2825289381756041e-01  -1.2721363092043125e-01  -1.2793912710170202e-01  -1.2667542684213276e-01  -1.2698301079434240e-01  -1.2560921660297020e-01  -1.2540913490346756e-01  -1.2405303870661280e-01  -1.2350899419513754e-01  -1.2222983001895729e-01  -1.2158434059586982e-01  -1.2033611353021444e-01  -1.2311422260208889e-01  -1.2094704000909821e-01  -1.2287963669761620e-01  -1.1990614411146867e-01  -1.2185070577703111e-01  -1.2114903927460494e-01  -1.1924749657707030e-01  -1.1785574632639037e-01  -1.1953547229681827e-01  -1.2013274449636885e-01  -1.1825584898122354e-01  -1.1685308588519813e-01  -1.1570789412340907e-01  -1.1722035906495350e-01  -1.1443923867801570e-01  -1.1585065587941989e-01  -1.1268100742330557e-01  -1.1401536613579871e-01  -1.1041173188876358e-01  -1.1143122757101273e-01  -1.0727330964947056e-01  -1.0798001908917020e-01  -1.0316318101270378e-01  -1.0353088514854840e-01  -9.8230471920911153e-02  -9.8013946372991226e-02  -9.2482195200767683e-02  -9.1659709294945296e-02  -8.6022045791519508e-02  -8.4543441620384546e-02  -7.9062842692674079e-02  -7.6942429330694784e-02  -7.1801168787319181e-02  -6.9147555946330097e-02  -6.4581371793827197e-02  -6.1378426792903902e-02  -5.7608065414470673e-02  -5.3887997587804798e-02  -5.0718688959874678e-02  -4.6770087515365162e-02  -4.4041375759219049e-02  -4.0066450232805306e-02  -3.7907330439963256e-02  -3.3814081349863877e-02  -3.2139740962196239e-02  -1.1345114255898253e-01  -2.8002643992425542e-02  -2.6672483302663089e-02  -2.2481119735649903e-02  -2.1213334325688282e-02  -1.2849257150055904e-01  -1.7106742385528631e-02  -1.5969510206876373e-02  -1.1833377059058061e-02  -1.1112184195838344e-02  -6.6713958913891570e-03  -6.3813750889160428e-03  -1.5150434628258245e-03  -1.6855964160935437e-03  3.5736264436958937e-03  2.7762396675949162e-03  8.5045309912463521e-03  -1.1455971473083357e-01  -1.1581846908092207e-01  -1.2096171366952257e-01  -1.1637397120494723e-01  6.7511481789072521e-03  1.3138797583519877e-02  1.1094167472042281e-02  1.7418597325047202e-02  1.4695724917460615e-02  2.1282647904995299e-02  -1.0785766582033654e-01  -1.2152257634881836e-01  -1.1595103447137990e-01  -1.1087661599585513e-01  -1.0993767435188669e-01  -1.1425232140930155e-01  -1.0792649716196814e-01  -1.1129104686813449e-01  -1.0506565063118846e-01  -1.0726719865499436e-01  -1.0160427446232764e-01  -1.0246229119980023e-01  -9.7766133631530736e-02  -9.8383617844684135e-02  -9.3899521977171857e-02  -9.2658977713218391e-02  -8.9276982109385949e-02  -9.0325976650860756e-02  -8.5758135675752384e-02  -8.6065126981826418e-02  -8.2129598124550188e-02  -8.2085378346063539e-02  -7.8547381581783177e-02  -7.8147057675095152e-02  -7.5032711725339318e-02  -7.4714234186054607e-02  -7.1421613156671934e-02  -7.1430262430335151e-02  -6.7999362630985813e-02  -6.7910098401051999e-02  -6.4405109579556571e-02  -6.4454977872759667e-02  -6.0881902444141128e-02  -6.0717263006523615e-02  -5.7430952688061830e-02  -5.7135538497203153e-02  -5.3927107627483525e-02  -5.3555209654912103e-02  -5.0405457371163524e-02  -8.4408763350212829e-02  -4.9960944274198678e-02  -4.6807284877191310e-02  -4.7215473077967689e-02  -4.3665637068855873e-02  -4.3166897612544067e-02  -4.0057554025984654e-02  -1.0500016972629556e-01  1.7677498242051708e-02  2.4592155006755271e-02  -3.9617757291677415e-02  -3.6509130619811293e-02  -4.3844922742710131e-02  -5.7571987550845735e-02  2.0535720476418575e-02  2.7447460616173956e-02  2.3353087698373610e-02  2.9881605354287126e-02  2.5656048339718615e-02  3.1898419462066202e-02  -3.6170087546118293e-02  -3.2963922874579582e-02  -3.3693910883961446e-02  -2.9765634164349460e-02  -2.9121178901922860e-02  -2.5896574831812076e-02  -2.6467806302012002e-02  -2.2680011797953571e-02  -2.2099809787444934e-02  -1.8914247178680094e-02  2.7902589550870233e-02  3.3599983450616586e-02  2.9757567835458527e-02  3.5040612057364508e-02  -9.2330331153030173e-02  -1.8361155651701998e-02  -1.5076061194980984e-02  3.1557970681620362e-02  3.6285510502353929e-02  -1.5629282739546797e-02  -1.1782089587169422e-02  -1.1233586594907467e-02  -7.9484985895213536e-03  3.3276804142362157e-02  3.7432651657455143e-02  3.4737528027742159e-02  3.8490076382711534e-02  -6.6791495590088248e-02  -1.1747450055510585e-01  -8.6060838769264097e-02  -1.0234574487899922e-01  3.6019002371822470e-02  3.9324070526110179e-02  3.7058900097373039e-02  4.0077759651558652e-02  3.7908393781211185e-02  4.0720625575871201e-02  -7.4809695252329956e-03  -4.0973615894244779e-03  -4.5702288500446371e-03  -6.7372610728208559e-04  -9.8706964812485533e-05  3.3653481111637017e-03  2.8146311270769936e-03  6.8295285400912179e-03  7.3406882644882583e-03  1.0805579697705991e-02  -5.6876636886730156e-02  -7.7512454077435428e-02  3.8499957285748634e-02  4.1218353672509582e-02  3.8996543457280979e-02  4.1588280872742661e-02  -4.8158974774794298e-02  -1.2543814677264367e-01  1.1170843267764354e-02  1.4730310346020547e-02  1.4423210520484831e-02  1.8413584206035383e-02  1.8757233804617163e-02  2.2450363125339583e-02  2.2214840311694819e-02  2.6385120301662391e-02  2.6488396119552504e-02  3.0339208823056806e-02  -1.2559342802696627e-01  3.9309160760651357e-02  4.1826274520261386e-02  3.9635006010153503e-02  4.2011674768974244e-02  -2.5309340630130912e-02  -1.1640087071732948e-01  -1.2925117661116314e-01  -4.2594202729836453e-02  -1.1313720338403853e-01  -1.0901169434189455e-01  -1.0789672921293821e-01  3.9802846918751571e-02  4.2043959451785171e-02  4.0066764198647527e-02  4.1988594936403618e-02  4.0311036115571047e-02  4.1870067449057018e-02  -1.0320174700268964e-01  -1.0246158744206003e-01  3.0163247882496570e-02  3.4279851109941348e-02  3.4383262746388067e-02  3.8378009611609649e-02  3.8268292317793350e-02  4.2427786937546508e-02  4.2604615397163426e-02  4.6597767155648971e-02  4.0552510077708034e-02  4.1667069770222193e-02  -1.0214764229858111e-01  -2.1575449866227649e-02  -1.7894037984846296e-02  4.0742139243344508e-02  4.1403344125265827e-02  4.0668430544911684e-02  4.1000554500710766e-02  -5.0156845448051657e-02  4.6788216720662801e-02  5.0801058643839339e-02  5.0997454832146648e-02  5.5020734496836074e-02  -1.0918113540718196e-02  -8.1757676653108749e-02  5.4924658328642580e-02  5.9147806042170611e-02  5.9237181997629812e-02  6.3448042587444520e-02  6.3510368649650401e-02  6.7745564718435181e-02  6.7627015994273107e-02  7.2105497196390964e-02  8.3927402954641229e-03  7.1852788284571145e-02  7.6427019216310038e-02  3.6607536043606497e-03  4.0590847035017030e-02  4.0536611433780116e-02  4.0197559619039189e-02  3.9921914366826433e-02  3.7061394198183203e-02  -2.4037900281530137e-02  3.3289670339247436e-02  -1.2431964990684786e-02  4.3985842712342516e-02  2.7296113908103603e-02  7.7385676240411070e-03  1.6229721990023906e-02  7.6535731466729817e-02  8.0874273814032033e-02  8.0848762581506750e-02  8.5340445754947314e-02  4.4303712804125026e-02  1.9060348910740335e-02  4.1186558932416364e-02  -6.6011874962386738e-02  4.3856406465992114e-02  4.3048837904622154e-02  -3.6979815526134316e-02  3.9615401486345153e-02  3.9191670488193060e-02  3.8800874278730406e-02  3.8336723908046773e-02  3.7823750356397276e-02  3.7377926413561254e-02  -1.1134893522695881e-01  4.2939262319476514e-02  3.9707247235618852e-02  4.1748644406447079e-02  6.4322910427691915e-03  -1.2227398350566994e-02  -7.4367642990578242e-02  -7.6904710196003437e-02  -7.3790974728303649e-02  4.0335574743062048e-02  3.8831068971466494e-02  -9.8006724058426975e-02  -9.7276028557890706e-02  8.5128329702326561e-02  8.9578841030969109e-02  8.9922012946977020e-02  9.4242281192785105e-02  9.4620867992143406e-02  9.8994126812745706e-02  9.851