<?xml version="1.0"?>
<VTKFile type="UnstructuredGrid"  version="0.1"  >
<UnstructuredGrid>
<Piece  NumberOfPoints="2945" NumberOfCells="5525">
<Points>
<DataArray  type="Float64"  NumberOfComponents="3"  format="ascii">0 0.1 0  0.95 0.1 0  1 0.1 0  1 0 0  1.5 0 0  3 0 0  3 0.3 0  0 0.3 0  0.0197424558707114 0.1 0  0.03915669042224804 0.1 0  0.05824816022699029 0.1 0  0.07702223050332387 0.1 0  0.09548417327144595 0.1 0  0.1136391897583987 0.1 0  0.1314923700144587 0.1 0  0.1490487330862866 0.1 0  0.1663132263225292 0.1 0  0.1832906857273058 0.1 0  0.1999858946008978 0.1 0  0.216403545770297 0.1 0  0.2325482404045023 0.1 0  0.2484245348165176 0.1 0  0.2640368740372501 0.1 0  0.2793896589642241 0.1 0  0.2944872056237027 0.1 0  0.3093337469555254 0.1 0  0.3239334613687816 0.1 0  0.3382904528528069 0.1 0  0.3524087553122972 0.1 0  0.3662923366391824 0.1 0  0.3799451014768399 0.1 0  0.393370886920506 0.1 0  0.4065734648871676 0.1 0  0.419556546320114 0.1 0  0.4323237821343415 0.1 0  0.4448787573056132 0.1 0  0.4572250047274954 0.1 0  0.4693659926332938 0.1 0  0.4813051343276231 0.1 0  0.4930457849308193 0.1 0  0.5045912455271677 0.1 0  0.5159447600209797 0.1 0  0.5271095174127136 0.1 0  0.5380886618453393 0.1 0  0.5488852725463512 0.1 0  0.5595023868312478 0.1 0  0.5699429904313016 0.1 0  0.5802100167387366 0.1 0  0.5903063508274641 0.1 0  0.6002348329443006 0.1 0  0.6099982499579832 0.1 0  0.6195993483501782 0.1 0  0.6290408246013842 0.1 0  0.6383253354321616 0.1 0  0.6474554910757137 0.1 0  0.6564338522440513 0.1 0  0.6652629482939147 0.1 0  0.6739452579188948 0.1 0  0.6824832240165607 0.1 0  0.6908792415022103 0.1 0  0.6991356755989045 0.1 0  0.7072548438546967 0.1 0  0.7152390281534421 0.1 0  0.7230904746196039 0.1 0  0.7308113906759266 0.1 0  0.7384039435269326 0.1 0  0.7458702676581656 0.1 0  0.7532124631720397 0.1 0  0.7604325921167397 0.1 0  0.7675326856666862 0.1 0  0.7745147374421916 0.1 0  0.7813807123989068 0.1 0  0.7881325374362798 0.1 0  0.7947721131625659 0.1 0  0.8013013031866276 0.1 0  0.8077219449067021 0.1 0  0.8140358419942376 0.1 0  0.8202447685401882 0.1 0  0.8263504700910924 0.1 0  0.8323546643163114 0.1 0  0.8382590362474568 0.1 0  0.8440652473522128 0.1 0  0.8497749272799842 0.1 0  0.8553896837646281 0.1 0  0.8609110933285474 0.1 0  0.866340708855119 0.1 0  0.8716800550492284 0.1 0  0.8769306339052932 0.1 0  0.8820939206038667 0.1 0  0.8871713655604893 0.1 0  0.8921643975475726 0.1 0  0.8970744196575535 0.1 0  0.9019028106970642 0.1 0  0.9066509291259979 0.1 0  0.9113201098984042 0.1 0  0.9159116634553873 0.1 0  0.9204268818729691 0.1 0  0.9248670319440222 0.1 0  0.9292333656649013 0.1 0  0.9335271075812669 0.1 0  0.9377494640511216 0.1 0  0.941901623463222 0.1 0  0.9459847526686701 0.1 0  0.9538461538461205 0.1 0  0.9576923076922409 0.1 0  0.9615384615384381 0.1 0  0.9653846153846337 0.1 0  0.9692307692307542 0.1 0  0.9730769230768747 0.1 0  0.9769230769229952 0.1 0  0.9807692307691157 0.1 0  0.9846153846152361 0.1 0  0.9884615384614317 0.1 0  0.9923076923076356 0.1 0  0.9961538461538395 0.1 0  1 0.09591793123533533 0  1 0.09133596463859224 0  1 0.08619288104391448 0  1 0.08041996484521211 0  1 0.07394008421771697 0  1 0.06666666567302955 0  1 0.05850252932209174 0  1 0.04933859630113544 0  1 0.03905242821848202 0  1 0.02750659386753798 0  1 0.01454683679239736 0  1.015625 0 0  1.03125 0 0  1.046875 0 0  1.0625 0 0  1.078125 0 0  1.09375 0 0  1.109375 0 0  1.125 0 0  1.140625 0 0  1.15625 0 0  1.171875 0 0  1.1875 0 0  1.203125 0 0  1.21875 0 0  1.234375 0 0  1.25 0 0  1.265625 0 0  1.28125 0 0  1.296875 0 0  1.3125 0 0  1.328125 0 0  1.34375 0 0  1.359375 0 0  1.375 0 0  1.390625 0 0  1.40625 0 0  1.421875 0 0  1.4375 0 0  1.453125 0 0  1.46875 0 0  1.484375 0 0  1.515920751924515 0 0  1.531989369316721 0 0  1.54820720925872 0 0  1.564575665560501 0 0  1.581096138674279 0 0  1.597770029901263 0 0  1.614598783332311 0 0  1.631583831055205 0 0  1.64872661129721 0 0  1.666028606716533 0 0  1.683491276608443 0 0  1.701116134125304 0 0  1.718904673324128 0 0  1.736858414799339 0 0  1.754978895814663 0 0  1.773267661782904 0 0  1.791726281103402 0 0  1.810356325314689 0 0  1.8291593848892 0 0  1.848137076690385 0 0  1.867291007717254 0 0  1.886622833871288 0 0  1.90613418642363 0 0  1.925826753299799 0 0  1.945702199101513 0 0  1.96576223584749 0 0  1.986008569283268 0 0  2.006442931928877 0 0  2.02706707547783 0 0  2.047882750887917 0 0  2.06889175187935 0 0  2.090095860038271 0 0  2.111496891648636 0 0  2.133096679109554 0 0  2.154897066851056 0 0  2.176899916687499 0 0  2.199107102752146 0 0  2.22152053937028 0 0  2.244142122958061 0 0  2.266973806444078 0 0  2.290017523268154 0 0  2.313275249499252 0 0  2.336748971745516 0 0  2.360440702338606 0 0  2.384352453384031 0 0  2.408486280477412 0 0  2.432844240041185 0 0  2.457428414757088 0 0  2.482240901796653 0 0  2.507283830121838 0 0  2.532559332080812 0 0  2.558069568787417 0 0  2.583816724966441 0 0  2.60980299606584 0 0  2.636030600971886 0 0  2.662501790984011 0 0  2.689218818279327 0 0  2.716183964547616 0 0  2.743399548861297 0 0  2.77086788244719 0 0  2.798591312896326 0 0  2.826572223178268 0 0  2.854812990138617 0 0  2.883316031690714 0 0  2.912083780657189 0 0  2.941118704633482 0 0  2.970423276998917 0 0  3 0.02999999999994495 0  3 0.05999999999987042 0  3 0.089999999999783 0  3 0.119999999999701 0  3 0.149999999999619 0  3 0.179999999999692 0  3 0.2099999999997737 0  3 0.2399999999998511 0  3 0.2699999999999185 0  2.970138294777171 0.3 0  2.940375666438236 0.3 0  2.910711782853056 0.3 0  2.881146331305122 0.3 0  2.851678975030285 0.3 0  2.822309388626621 0.3 0  2.793037250095074 0.3 0  2.76386223529133 0.3 0  2.734784017903872 0.3 0  2.705802289276642 0.3 0  2.676916713794697 0.3 0  2.648126987654635 0.3 0  2.619432780406184 0.3 0  2.590833779385199 0.3 0  2.562329669847737 0.3 0  2.533920134950189 0.3 0  2.505604855727852 0.3 0  2.477383539822502 0.3 0  2.449255847639465 0.3 0  2.421221492569094 0.3 0  2.393280152486815 0.3 0  2.36543151914496 0.3 0  2.337675285481809 0.3 0  2.310011142385583 0.3 0  2.282438797441587 0.3 0  2.254957931061538 0.3 0  2.227568248063605 0.3 0  2.200269436651085 0.3 0  2.173061204949961 0.3 0  2.145943251515011 0.3 0  2.118915272469994 0.3 0  2.091976978084957 0.3 0  2.065128060700849 0.3 0  2.038368218849433 0.3 0  2.01169717777258 0.3 0  1.985114624111908 0.3 0  1.958620267850966 0.3 0  1.93221382054972 0.3 0  1.905894991850698 0.3 0  1.879663489459713 0.3 0  1.853519019126419 0.3 0  1.827461291053897 0.3 0  1.801490031354372 0.3 0  1.775604937580312 0.3 0  1.74980572560258 0.3 0  1.724092118631866 0.3 0  1.698463829173586 0.3 0  1.672920575782554 0.3 0  1.647462076974085 0.3 0  1.622088043536933 0.3 0  1.5967981978949 0.3 0  1.571592267767068 0.3 0  1.546469970305736 0.3 0  1.521431023814044 0.3 0  1.496475156230927 0.3 0  1.471602093687753 0.3 0  1.446811560490646 0.3 0  1.422103279101731 0.3 0  1.397476971708191 0.3 0  1.37293238939876 0.3 0  1.348469231419202 0.3 0  1.324087248732772 0.3 0  1.299786165921677 0.3 0  1.275565710847046 0.3 0  1.251425617644257 0.3 0  1.227365618676339 0.3 0  1.203385446174014 0.3 0  1.179484853067473 0.3 0  1.155663548773374 0.3 0  1.131921292279077 0.3 0  1.108257802159295 0.3 0  1.084672829009693 0.3 0  1.061166115303374 0.3 0  1.037737392995421 0.3 0  1.01438640299116 0.3 0  0.991112899770314 0.3 0  0.9679166155523955 0.3 0  0.944797284182564 0.3 0  0.921754678526042 0.3 0  0.8987885143602501 0.3 0  0.8758985548820624 0.3 0  0.8530845484099929 0.3 0  0.8303462351786988 0.3 0  0.8076833651172373 0.3 0  0.7850956864865304 0.3 0  0.7625829601354557 0.3 0  0.7401449314598274 0.3 0  0.717781337993959 0.3 0  0.6954919649675473 0.3 0  0.6732765357561226 0.3 0  0.6511348120768439 0.3 0  0.6290665642016573 0.3 0  0.6070715355430467 0.3 0  0.5851494825775325 0.3 0  0.5633001690203812 0.3 0  0.5415233562273221 0.3 0  0.5198187909431873 0.3 0  0.4981862401387795 0.3 0  0.4766254686134248 0.3 0  0.4551362360485234 0.3 0  0.4337182975262159 0.3 0  0.4123714223228037 0.3 0  0.3910953802377493 0.3 0  0.3698899313205595 0.3 0  0.3487548463710963 0.3 0  0.3276898864081783 0.3 0  0.3066948129116018 0.3 0  0.2857694003037476 0.3 0  0.2649134227095047 0.3 0  0.2441266417321288 0.3 0  0.2234088223399122 0.3 0  0.2027597568977288 0.3 0  0.1821792020676698 0.3 0  0.1616669305402443 0.3 0  0.1412227158799362 0.3 0  0.12084633013886 0.3 0  0.1005375673448281 0.3 0  0.08029618164595353 0.3 0  0.06012194778526769 0.3 0  0.04001466495039718 0.3 0  0.01997408913631205 0.3 0  0 0.2800000000000553 0  0 0.2600000000001105 0  0 0.2400000000001658 0  0 0.2200000000002211 0  0 0.2000000000002764 0  0 0.1800000000002244 0  0 0.1600000000001691 0  0 0.140000000000115 0  0 0.1200000000000564 0  1.133778471000506 0.01219539743990768 0  1.003741919047894 0.09354664821474232 0  0.9559421147150347 0.1035858189992458 0  0.9313792160389045 0.1037365237938103 0  0.9788461538460573 0.1033060829993555 0  0.9090102438250753 0.1037269304984056 0  0.8846304212778655 0.1043349840723655 0  0.8581503885465881 0.104741932962923 0  0.8286416220145676 0.1052762843984476 0  0.7982741772533339 0.1053575624517407 0  0.7708789559342691 0.1060290465840416 0  0.741870349714261 0.1078220590984258 0  0.7112469360040695 0.10685702926368 0  0.6783901541417233 0.1079959711853378 0  0.642884733623195 0.1075561996086514 0  0.6056235042367955 0.1085956039602543 0  0.5647007593786924 0.1083187281660325 0  1.1953125 0.01353164693413185 0  1.258148737344733 0.01268350115427042 0  1.320087046516829 0.01426312402966312 0  1.383495130751951 0.01432665475473204 0  1.4453125 0.01315663539200989 0  1.50886768312388 0.01395488397722681 0  0.9942307692307371 0.103330866937657 0  1.119309781943483 0.2802014914557878 0  1.572831235329714 0.01707210522554785 0  1.637611634353954 0.01209340368483431 0  1.709661292005932 0.0146870244871893 0  1.006561890631532 0.07068055446055937 0  1.784793444007901 0.01499371444634687 0  1.855459587353174 0.0
[...]
<PointData  Scalars="pressure"> 
<DataArray  type="Float64"  Name="pressure"  format="ascii">1.5391330774192405e-01  -1.4952176050663302e-01  -2.1673708475388948e-01  -1.5933979291863809e-01  -3.7917808861059041e-02  0.0000000000000000e+00  0.0000000000000000e+00  1.5392141400670478e-01  1.4799057924001166e-01  1.4216623172843823e-01  1.3643860434565272e-01  1.3080607679973105e-01  1.2526704058164406e-01  1.1981994029274048e-01  1.1446322394621844e-01  1.0919536159171689e-01  1.0401487924922211e-01  9.8920257649001073e-02  9.3910052379700126e-02  8.8982850733712690e-02  8.4137209306247199e-02  7.9371749206630246e-02  7.4685069804349802e-02  7.0075830020792373e-02  6.5542649680016787e-02  6.1084243878951006e-02  5.6699257027329142e-02  5.2386437068171199e-02  4.8144421343520226e-02  4.3972001415016414e-02  3.9868018884783175e-02  3.5831018860759678e-02  3.1859893920515227e-02  2.7953370459367227e-02  2.4110318495015139e-02  2.0329443428197889e-02  1.6609614816879986e-02  1.2949603354421933e-02  9.3482895776319606e-03  5.8045995353838403e-03  2.3171173432007370e-03  -1.1151475349172701e-03  -4.4933002326900577e-03  -7.8185080890742255e-03  -1.1091972153766392e-02  -1.4314701848003637e-02  -1.7487893752397791e-02  -2.0612588615519217e-02  -2.3689997291828659e-02  -2.6721150988938423e-02  -2.9707130417490176e-02  -3.2649006097701293e-02  -3.5547940979572396e-02  -3.8404896247715502e-02  -4.1221088152102084e-02  -4.3997455877082446e-02  -4.6735090824337445e-02  -4.9435215643473508e-02  -5.2098572039507900e-02  -5.4726474760372422e-02  -5.7320015006437366e-02  -5.9879646003979534e-02  -6.2406941306300895e-02  -6.4902846649896706e-02  -6.7368131300902884e-02  -6.9804543833108593e-02  -7.2212057556148596e-02  -7.4591720648408716e-02  -7.6945251042728036e-02  -7.9273229911664536e-02  -8.1577063652932602e-02  -8.3856786876620459e-02  -8.6113378884460801e-02  -8.8348909791271066e-02  -9.0563455114835809e-02  -9.2758188450416001e-02  -9.4933961540082171e-02  -9.7091746285701733e-02  -9.9232245928516163e-02  -1.0135668773456750e-01  -1.0346549279854761e-01  -1.0555961487995509e-01  -1.0764055908050610e-01  -1.0970886472711060e-01  -1.1176508033954374e-01  -1.1381062019517865e-01  -1.1584628159351541e-01  -1.1787274332846095e-01  -1.1989068755824740e-01  -1.2190290472688610e-01  -1.2390852399597158e-01  -1.2590959371871277e-01  -1.2790554829620035e-01  -1.2990513992703429e-01  -1.3189375536892287e-01  -1.3382333545960884e-01  -1.3642272988032128e-01  -1.3475361357593005e-01  -1.5447951963970252e-01  -1.2342516881270278e-01  -1.4707933685446528e-01  -1.4464494720813892e-01  -1.4751974857059713e-01  -1.5152693507630408e-01  -1.5358027398884136e-01  -1.5567521741801454e-01  -1.5782433861999651e-01  -1.6003863993823730e-01  -1.6232550456669728e-01  -1.6469613029270608e-01  -1.6717493275194434e-01  -1.6975197789875221e-01  -1.7232930187995407e-01  -1.7643324736430888e-01  -1.6988955996949412e-01  -1.9911704749911513e-01  -1.8002086811890008e-01  -1.7319461467979255e-01  -1.6837190582737685e-01  -1.6517734888470192e-01  -1.6278234540050576e-01  -1.6092198777077454e-01  -1.5958833893991675e-01  -1.5879442287788451e-01  -1.5858201947415587e-01  -1.5898891933738341e-01  -1.5978408250301218e-01  -1.6015760256503056e-01  -1.5994277052767147e-01  -1.5926212470808365e-01  -1.5820339171812936e-01  -1.5680975379737361e-01  -1.5506429913323486e-01  -1.5295598292256604e-01  -1.5051444440596162e-01  -1.4775283059007627e-01  -1.4467627555943441e-01  -1.4130340614509074e-01  -1.3764589108170919e-01  -1.3371282681632557e-01  -1.2952224744204360e-01  -1.2509273619631678e-01  -1.2044029224603252e-01  -1.1557892612155198e-01  -1.1053071504870650e-01  -1.0530715304807316e-01  -9.9938407783439709e-02  -9.4445714579162995e-02  -8.8844390666146411e-02  -8.3166970567693677e-02  -7.7431893661457973e-02  -7.1670476193727892e-02  -6.5905227635979460e-02  -6.0159703598161994e-02  -5.4465175796907753e-02  -4.8843877906828558e-02  -4.3321009481333238e-02  -3.2558677594149286e-02  -2.7327584494592418e-02  -2.2234601676712349e-02  -1.7322048000201880e-02  -1.2589385148036676e-02  -8.0668122332405896e-03  -3.7667547136263318e-03  3.0316417038011282e-04  4.1036066163335693e-03  7.6503212171629420e-03  1.0939656723114350e-02  1.3966169702083602e-02  1.6727424697146536e-02  1.9229955838645275e-02  2.1479514723752306e-02  2.3486573277369468e-02  2.5263026275187239e-02  2.6811522636522391e-02  2.8146423813114281e-02  2.9298495222024233e-02  3.0257737704813464e-02  3.1053769196438659e-02  3.1700212058367969e-02  3.2205043249203216e-02  3.2591432033085864e-02  3.2860139364166485e-02  3.3042412271321792e-02  3.3130939420887642e-02  3.3144407442554522e-02  3.3087405104997802e-02  3.2967396781559695e-02  3.2793318565438996e-02  3.2573768223053447e-02  3.2312354587995640e-02  3.2009411740856454e-02  3.1671236477701523e-02  3.1298570306676071e-02  3.0893962362468923e-02  3.0457186096130018e-02  2.9989131264360171e-02  2.9489609162249564e-02  2.8958272421576333e-02  2.8393864945760051e-02  2.7795442552619981e-02  2.7161619494195030e-02  2.6491844386104225e-02  2.5783364820602624e-02  2.5034900537203104e-02  2.4246293152062698e-02  2.3414210790798536e-02  2.2535413260371059e-02  2.1615457044363146e-02  2.0643638621350956e-02  1.9629046797478442e-02  1.8563537451349844e-02  1.7443771274633247e-02  1.6280522700990663e-02  1.5059752941328546e-02  1.3790894419843332e-02  1.2470277426476190e-02  1.1096334464715580e-02  9.6690855075033198e-03  8.1894945322332803e-03  6.6622462755392634e-03  5.0777966312753843e-03  3.4531946601812644e-03  1.7722152577899107e-03  0.0000000000000000e+00  0.0000000000000000e+00  0.0000000000000000e+00  0.0000000000000000e+00  0.0000000000000000e+00  0.0000000000000000e+00  0.0000000000000000e+00  0.0000000000000000e+00  0.0000000000000000e+00  1.9219963320819555e-03  3.7182807025054583e-03  5.4868505900669134e-03  7.2033842303744931e-03  8.8712425235625402e-03  1.0489320051411384e-02  1.2056811673327138e-02  1.3571897356570417e-02  1.5031913228378373e-02  1.6434488937831442e-02  1.7776364103586510e-02  1.9054182426330873e-02  2.0263648460160110e-02  2.1401484170295273e-02  2.2464071160887795e-02  2.3442841615835659e-02  2.4340108138766532e-02  2.5141296047022504e-02  2.5846047134923718e-02  2.6445713251243248e-02  2.6933943233249154e-02  2.7304272345545874e-02  2.7550255588242263e-02  2.7661489300315794e-02  2.7638171463528798e-02  2.7468279327765903e-02  2.7143574905297872e-02  2.6661286789556940e-02  2.6010682050358731e-02  2.5188004597291178e-02  2.4187547978916032e-02  2.3005839415593227e-02  2.1646446782268416e-02  2.0104689626640485e-02  1.8349789217321642e-02  1.6422997943305324e-02  1.4300419728903722e-02  1.1983507303125850e-02  9.4731694796692644e-03  6.7771643970954013e-03  3.8866975588440667e-03  8.1388622786795193e-04  -2.4476874878904807e-03  -5.8865468183718385e-03  -9.5138454105082332e-03  -1.3308789812611244e-02  -1.7289746104082338e-02  -2.1441717917870095e-02  -2.5751762700045203e-02  -3.0234616030037600e-02  -3.4864464615272421e-02  -3.9628788407597829e-02  -4.4528671967110113e-02  -4.9551446639783302e-02  -5.4670491178897877e-02  -5.9876380489774776e-02  -6.5146199369506164e-02  -7.0445079780055528e-02  -7.5738150399447493e-02  -8.1009090972312389e-02  -8.6231589631637726e-02  -9.1297980950275512e-02  -9.6202499117770277e-02  -1.0090587712343441e-01  -1.0534309005004878e-01  -1.0942729546067148e-01  -1.1313278752654303e-01  -1.1640212702712190e-01  -1.1916619379276826e-01  -1.2138073596304626e-01  -1.2290034299343183e-01  -1.2382820408103043e-01  -1.2407486759267851e-01  -1.2356707254608597e-01  -1.2220066669457011e-01  -1.2017157068296265e-01  -1.1739711288353050e-01  -1.1398059550234461e-01  -1.1010480773088736e-01  -1.0558399117291087e-01  -1.0066978848400468e-01  -9.5402672207022796e-02  -8.9880923609122546e-02  -8.4131370124608126e-02  -7.8188856259925013e-02  -7.2098579921343192e-02  -6.5909088439909169e-02  -5.9637060369678294e-02  -5.3292451443964231e-02  -4.6909073088873855e-02  -4.0489392676579319e-02  -3.4050374128348125e-02  -2.7598327550670813e-02  -2.1138535061330101e-02  -1.4677002932369997e-02  -8.2202962918803638e-03  -1.7700778095099392e-03  4.6708288176043680e-03  1.1099720810695528e-02  1.7514215488528460e-02  2.3913196385301243e-02  3.0296508259239636e-02  3.6662248629271720e-02  4.3010152323606991e-02  4.9339401537092251e-02  5.5649861889450085e-02  6.1941177897751672e-02  6.8212700302745344e-02  7.4464824898387544e-02  8.0696861288308747e-02  8.6909090378558609e-02  9.3101301904724362e-02  9.9273390545589063e-02  1.0542548675195935e-01  1.1155748304443866e-01  1.1766942013860440e-01  1.2376131527619140e-01  1.2983320161033182e-01  1.3588511951006046e-01  1.4191710153152831e-01  1.4792918720405077e-01  1.5392139173422092e-01  1.5392105940235934e-01  1.5392022784636811e-01  1.5391893567098433e-01  1.5391736268710876e-01  1.5391579220495671e-01  1.5391449526111101e-01  1.5391367005828310e-01  1.5391333632690332e-01  -1.5132770558908745e-01  -1.8381302199378577e-01  -1.5279592426268779e-01  -1.3955300776657673e-01  -1.6624955975193090e-01  -1.3099587570614735e-01  -1.2096797724320242e-01  -1.1079382358531181e-01  -1.0008880852526938e-01  -8.9570526556253777e-02  -8.0405397538813622e-02  -7.0947922549379885e-02  -6.1160480953087577e-02  -5.0835807012344095e-02  -3.9820583958668637e-02  -2.8376198434405017e-02  -1.5899071860803284e-02  -1.3933631551264716e-01  -1.2266019777955818e-01  -1.0281112325443126e-01  -8.0262566731004625e-02  -5.7593468587517564e-02  -3.5294431351261514e-02  -1.7932638376879820e-01  -1.2165795998905680e-01  -1.5416255279144215e-02  1.2886116712439151e-03  1.4927161508758507e-02  -1.6465119264600886e-01  2.4279032045735234e-02  2.9404838381088698e-02  -2.9124021126790411e-03  3.2201050478574397e-02  -1.1065778057789760e-01  -9.3011795321996507e-02  3.3018756080610966e-02  -7.2471855479484093e-02  1.1356990230830838e-02  -4.7311074083576501e-02  3.2603163814406866e-02  2.5370493745157985e-02  -1.5702539492937445e-01  3.1418279228158437e-02  -2.3319549250436295e-02  -1.2342335822700271e-01  4.1459737482954104e-02  2.9691660664125024e-02  -7.6881023899755426e-04  5.9187259992697736e-02  7.9640762485385184e-03  2.7442447477823151e-02  1.5442640190149232e-02  -1.1585446991057850e-01  2.4520749573727293e-02  7.7028123480125846e-02  2.0830460588134470e-02  -1.0311175732193861e-01  -8.6437845158909440e-02  2.4618059697668958e-02  2.1123708020575224e-02  9.6912320230695806e-02  1.1171163896119571e-01  -1.1305311673016322e-02  1.7980773479613545e-02  1.4264443662095385e-02  -6.3083262551980171e-02  2.6818216828141169e-02  2.7498371958718321e-02  -4.3451769454544688e-02  -1.4662533373179490e-01  -1.5921768375241838e-01  -2.4543935908373414e-02  2.6590181993753775e-02  1.0420871379136706e-02  5.7305170176450869e-04  2.3808453843252340e-02  3.3304285133271362e-02  2.0765090919656233e-02  6.5077308978136808e-02  1.7055432898816534e-02  8.3701262238841390e-02  1.2058479132871609e-01  1.0249471313971893e-01  1.2764614705509967e-02  1.4887483490603953e-01  1.6238782370456106e-03  1.2822615921536898e-01  -1.5978413719448406e-01  8.1423517921080501e-03  5.7205241133161484e-03  -1.7048455396111950e-01  -1.5910956707514726e-01  -1.2110732920849980e-01  -1.1727970056761122e-01  -7.5307776348405631e-02  -1.1404752375946004e-02  1.3999987742773067e-02  4.6914621940129499e-02  -3.6923749847146012e-02  -6.1877565908844294e-02  -8.2508443834376416e-02  -1.0247990177440874e-01  8.6559818031118785e-02  6.7890031031318354e-02  2.7452028122088322e-02  2.5407556306281356e-02  5.0729017471249284e-02  2.2989797311727241e-02  1.3276249141912952e-01  2.6070365198202175e-02  2.8635285176654660e-02  3.3540304695223275e-02  3.0619564535328193e-02  1.4884208604913954e-01  3.2090514500027652e-02  1.8568221267409799e-02  3.2940066882835690e-02  3.2816171728650902e-02  -2.5154697234512143e-02  3.1086254695518574e-02  3.9252498040903278e-03  2.7177005922167322e-02  2.0004611225995027e-02  8.7545681425681820e-03  -9.5695839270404960e-03  -6.1113604331895091e-03  1.3584757830187803e-03  -2.2154473398248418e-02  -3.4144195731777342e-02  -4.5609936692280570e-02  -5.5738570284788999e-02  -6.6317541495898621e-02  -7.5810280297738467e-02  -8.5244905610131677e-02  -9.6050251324412611e-02  -1.4584535417857039e-01  -1.0664833012152874e-01  -1.1697390162089216e-01  -1.2699401102956015e-01  -1.3154879928038810e-01  -1.3725904388246990e-01  -9.2000906597906121e-02  -1.1262841315920863e-01  -6.9882957699487630e-02  -4.6402750596509793e-02  1.4926894997976486e-01  -1.7169706468298268e-01  1.7065608315385763e-03  1.3926376262876564e-01  4.5432302351514830e-03  -1.5954577590911276e-01  1.3724687272607765e-03  1.4939806541978362e-01  -1.5951009334090593e-01  -1.5917437878377491e-01  -1.5870580170127851e-01  -1.5921449982596303e-01  -1.5873235510799619e-01  -1.5956090159918171e-01  -1.5895399327421042e-01  -1.6001026086514117e-01  -1.5927033390740108e-01  -1.6032880657628870e-01  -1.5939774221427785e-01  -1.6024100739348102e-01  -1.5910150054558611e-01  -1.5961670542983969e-01  -1.5832769680959005e-01  -1.5855721652908569e-01  -1.5706775456390881e-01  -1.5710900467800101e-01  -1.5545576829411412e-01  -1.5512006652655030e-01  -1.5314906154689131e-01  -1.5691203192787762e-01  -1.5358736359543426e-01  -1.5091415469718042e-01  -1.5431164712919390e-01  -1.5644663440183201e-01  -1.5099783211541917e-01  -1.4810760714483470e-01  -1.4841435749837895e-01  -1.4503956164353798e-01  -1.4522139827388864e-01  -1.4164996343162645e-01  -1.4164037550510741e-01  -1.3805137978460233e-01  -1.3766290553307792e-01  -1.3346149280692082e-01  -1.3307200028988928e-01  -1.2884852826325530e-01  -1.2816258292203239e-01  -1.2398486809695926e-01  -1.2295041289820464e-01  -1.1802221483835058e-01  -1.1727043289817238e-01  -1.1292732235813401e-01  -1.1145654071873536e-01  -1.0710846564625327e-01  -1.0534167871518606e-01  -1.0118958727910936e-01  -9.9030334254318508e-02  -9.4971579042132437e-02  -9.2520347868211186e-02  -1.5277952506662007e-01  -1.5466805351212101e-01  -8.8596690058911354e-02  -8.5679829578957270e-02  -8.2259704100797720e-02  -7.8971771027598808e-02  -7.5992420599613794e-02  -7.2660740921311820e-02  -6.9757022344719505e-02  -6.6145718444010390e-02  -6.3622572665633551e-02  -5.9701158846074069e-02  -1.4699373093464668e-01  -5.7636429628703564e-02  -5.3368202182013325e-02  -5.1824315746409298e-02  -4.7248284272598334e-02  -4.6257970597281983e-02  -4.1376734918482608e-02  -1.5039784821356939e-01  -1.5223621985887997e-01  -1.6078157416397340e-01  -4.0900604732257699e-02  -3.5730632005031258e-02  -1.5810227594344525e-01  -3.5699203003539404e-02  -3.0355825626267693e-02  -3.0857948520741908e-02  -2.5309462206984098e-02  -2.6235069252083618e-02  -2.0550034480735644e-02  -1.3792369506252597e-01  -2.2118939497918426e-02  -1.6155196339820332e-02  -1.7932419280931713e-02  -1.2024870467741955e-02  -1.4128562289490738e-02  -8.2144506963122491e-03  -1.5768976229032108e-01  -1.2428592882555219e-01  -1.0576578030308051e-02  -4.7398095456558298e-03  -1.4715667361354576e-01  -1.4965263011220323e-01  -1.4534001878786515e-01  -1.0801232897523649e-01  -7.6341538858524299e-03  -1.4493591534308430e-03  -4.6441572600845714e-03  1.5267869727719253e-03  -1.8587081685696406e-03  4.1074867969277205e-03  -3.6355833914703831e-02  1.4456398828212134e-03  -1.9764413186115191e-02  -5.5466823519937952e-02  7.5058932564849761e-04  6.4590903687706770e-03  9.8185824796965474e-03  1.2014454262975394e-02  8.6708577063911180e-03  1.3989610447870057e-02  1.0753422090745555e-02  1.5834987203846917e-02  1.2633254494711841e-02  1.7436218246941502e-02  1.4355249110001621e-02  1.8914298789138386e-02  1.5975658521381855e-02  2.0211069628922315e-02  1.7380812294229921e-02  2.1396792284680281e-02  1.8785521186625524e-02  2.2577440526604643e-02  2.0039558064170376e-02  2.3543972893345193e-02  2.1220556411914684e-02  2.4382147851813057e-02  2.2163396132666741e-02  2.5145254218894405e-02  -7.5480537374021175e-02  -9.0586954354156035e-02  2.3127677017596299e-02  2.5786650236352401e-02  2.4040402649875340e-02  2.6397170107386059e-02  -1.4445706185495513e-01  2.4850863029373872e-02  2.6897600923040301e-02  -1.0925020209224651e-01  -1.2658251829148875e-01  -1.4313562141346306e-01  -1.4293464741219683e-01  -1.5012299686853356e-01  -1.4524102253870355e-01  -1.5082900368094918e-01  -1.4581400986239176e-01  -1.5094900507811551e-01  -1.4538657732446222e-01  -1.5008191442638322e-01  -1.4440772608754029e-01  -1.4830508376646304e-01  -1.4257062880170418e-01  -1.4579110024492800e-01  -1.4015814806882870e-01  -1.4277391006012541e-01  -1.3759814262364786e-01  -1.3887504181276047e-01  -1.3382627624023727e-01  -1.3550727019669162e-01  -1.3103930097172781e-01  -1.3191118210290542e-01  -1.2767483283067221e-01  -1.2822352774932641e-01  -1.2422045651640011e-01  -1.2450520198261916e-01  -1.2075367315774095e-01  -1.2074681578588045e-01  -1.1712562493315100e-01  -1.2629525516724191e-01  -1.1694901769680398e-01  -1.1346730679504120e-01  -1.1344772730949226e-01  -1.0997740528615098e-01  -1.0981594586442174e-01  -1.0647613786589562e-01  -1.0636110556920325e-01  -1.0300420954812622e-01  -1.0657987981353577e-01  -1.0314993168770896e-01  -9.9550921749869625e-02  -9.9001685364474165e-02  -9.5871022212359158e-02  -9.6309933193109779e-02  -9.2736469851644812e-02  -9.2201574019767682e-02  -8.9152798475572781e-02  -8.8459687760351152e-02  -8.5546301970053806e-02  -1.5577323015169658e-01  -8.4731615396459556e-02  -8.1857797244744804e-02  -8.2516559908937526e-02  -7.8860124287059560e-02  -7.8168957807105421e-02  -7.5186641924372175e-02  -7.4476295242743101e-02  -7.1515693775696970e-02  -1.4809817523773591e-01  -1.3558761755212340e-01  -1.5400682264440502e-01  -1.3964456817581328e-01  -7.0658731557194362e-02  -6.7783012240484802e-02  -6.8529628617995234e-02  -6.4757609035750827e-02  -6.4027334512883075e-02  -6.0978584579390968e-02  -6.0218745135693912e-02  -5.7160139085825838e-02  -5.7924719868621473e-02  -5.4071326861415372e-02  -5.3242965563848388e-02  -5.0178064827525667e-02  -9.3203567821441471e-02  -4.9304366522275732e-02  -4.6299686636011854e-02  -1.3228825609900696e-01  -1.4022337304402574e-01  -7.9554762135221571e-02  -1.2423796656976184e-01  -4.5425949296841212e-02  -4.2321959187566059e-02  -4.3459801286398585e-02  -3.9222635581056896e-02  -3.8402965447150231e-02  -3.5127824460066431e-02  -3.5964254446347141e-02  -3.1845921792503305e-02  -3.1035081137391774e-02  -2.7742307144278826e-02  -1.0959192621254768e-01  -2.6957847979452582e-02  -2.3580431854037843e-02  -5.4617366789548642e-02  -9.0784966520843113e-02  -7.2978305403433530e-02  -1.0184912245132494e-01  -2.4390678762006509e-02  -2.0193796855858443e-02  -1.9411286896741990e-02  -1.6010856149795766e-02  2.5492215629519754e-02  2.7312860574167583e-02  2.6073116000597810e-02  2.7661250885101352e-02  2.6590060242601018e-02  2.7938360245286363e-02  -1.5086621255876854e-02  -1.1719804014115679e-02  -4.5731832694981468e-02  -1.2535231636822207e-02  -8.2615860231815448e-03  -7.5921439748977198e-03  -4.0235295407617562e-03  -1.6060139397109760e-01  -1.3918421712107862e-01  -7.7403090217772905e-02  2.3225330734819187e-02  2.7015484569419018e-02  2.8136012331717527e-02  1.4844821002200739e-02  2.7163192067362722e-02  2.9143256495026786e-02  2.9125995619600682e-02  2.8259858397340049e-02  2.9056560768441316e-02  2.8316439832482377e-02  2.8928529037379760e-02  2.8291639653800882e-02  2.8734850431583019e-02  2.8194908759510633e-02  2.8483019494444643e-02  2.8015428335234693e-02  2.8160297586537378e-02  2.7760674028489665e-02  2.7778229900953095e-02  2.7433228194616237e-02  2.7335256401676646e-02  2.7036090876297488e-02  2.6832931249263649e-02  2.6560233381432732e-02  2.6257023851021632e-02  2.6004918620746827e-02  2.5630188730424823e-02  2.5373289686747687e-02  2.4918719780323222e-02  -3.3630656006753959e-03  2.3428307628825103e-04  -1.6072345618912962e-04  3.9710817421085617e-03  4.5595467521763180e-03  8.250480