<?xml version="1.0"?>
<VTKFile type="UnstructuredGrid"  version="0.1"  >
<UnstructuredGrid>
<Piece  NumberOfPoints="2886" NumberOfCells="5412">
<Points>
<DataArray  type="Float64"  NumberOfComponents="3"  format="ascii">0 0.1 0  0.98 0.1 0  1 0.1 0  1 0 0  1.5 0 0  3 0 0  3 0.3 0  0 0.3 0  0.01975375321854102 0.1 0  0.03918897458218897 0.1 0  0.05831079002627837 0.1 0  0.07712425666319796 0.1 0  0.0956343475259058 0.1 0  0.1138459546796227 0.1 0  0.1317638870668193 0.1 0  0.1493928840275937 0.1 0  0.1667376092280033 0.1 0  0.1838026357802664 0.1 0  0.2005924801287244 0.1 0  0.2171115811543574 0.1 0  0.2333643037107681 0.1 0  0.2493549444060462 0.1 0  0.2650877293306821 0.1 0  0.2805668058011438 0.1 0  0.2957962848620976 0.1 0  0.3107801766802674 0.1 0  0.3255224447361181 0.1 0  0.3400269848175519 0.1 0  0.3542976327080778 0.1 0  0.3683381609158136 0.1 0  0.3821522744564845 0.1 0  0.3957436316838916 0.1 0  0.4091158196437086 0.1 0  0.4222723742184605 0.1 0  0.4352167733293057 0.1 0  0.4479524348643424 0.1 0  0.4604827295467524 0.1 0  0.4728109659990664 0.1 0  0.4849404035409129 0.1 0  0.4968742471455402 0.1 0  0.508615651843175 0.1 0  0.520167721130924 0.1 0  0.5315335063628542 0.1 0  0.5427160117228604 0.1 0  0.5537181940261912 0.1 0  0.564542961924507 0.1 0  0.575193173270606 0.1 0  0.5856716438765114 0.1 0  0.5959811458006617 0.1 0  0.6061243988680743 0.1 0  0.6161040893285659 0.1 0  0.6259228503970299 0.1 0  0.6355832809287655 0.1 0  0.6450879281079505 0.1 0  0.6544393102991295 0.1 0  0.663639896558931 0.1 0  0.6726921201956305 0.1 0  0.6815983691630338 0.1 0  0.6903610031396646 0.1 0  0.6989823343332418 0.1 0  0.7074646404270378 0.1 0  0.7158101645005117 0.1 0  0.7240211149852543 0.1 0  0.7320996585612525 0.1 0  0.7400479319727645 0.1 0  0.7478680336617921 0.1 0  0.755562036504958 0.1 0  0.7631319665092091 0.1 0  0.7705798279317605 0.1 0  0.777907588066146 0.1 0  0.7851171851013118 0.1 0  0.7922105226004981 0.1 0  0.7991894774550319 0.1 0  0.8060558928136696 0.1 0  0.812811583201334 0.1 0  0.8194583352091183 0.1 0  0.8259979035038147 0.1 0  0.8324320194413813 0.1 0  0.8387623808293405 0.1 0  0.8449906627004957 0.1 0  0.8511185094880469 0.1 0  0.8571475426008311 0.1 0  0.8630793533568246 0.1 0  0.8689155114558531 0.1 0  0.8746575581239063 0.1 0  0.8803070109173519 0.1 0  0.885865363938836 0.1 0  0.8913340851680313 0.1 0  0.8967146206523592 0.1 0  0.9020083930695622 0.1 0  0.9072167995950768 0.1 0  0.9123412183131177 0.1 0  0.9173830029719022 0.1 0  0.9223434865647732 0.1 0  0.9272239785872722 0.1 0  0.9320257720706087 0.1 0  0.9367501330378739 0.1 0  0.9413983102716995 0.1 0  0.9459715351562933 0.1 0  0.9504710127113115 0.1 0  0.9548979346500661 0.1 0  0.9592534708344373 0.1 0  0.9635387708980176 0.1 0  0.9677549682252325 0.1 0  0.971903177251235 0.1 0  0.9759844952956497 0.1 0  0.9840000000000086 0.1 0  0.987999999999974 0.1 0  0.9919999999999393 0.1 0  0.9959999999999913 0.1 0  1 0.09591793123533533 0  1 0.09133596463859224 0  1 0.08619288104391448 0  1 0.08041996484521211 0  1 0.07394008421771697 0  1 0.06666666567302955 0  1 0.05850252932209174 0  1 0.04933859630113544 0  1 0.03905242821848202 0  1 0.02750659386753798 0  1 0.01454683679239736 0  1.015625 0 0  1.03125 0 0  1.046875 0 0  1.0625 0 0  1.078125 0 0  1.09375 0 0  1.109375 0 0  1.125 0 0  1.140625 0 0  1.15625 0 0  1.171875 0 0  1.1875 0 0  1.203125 0 0  1.21875 0 0  1.234375 0 0  1.25 0 0  1.265625 0 0  1.28125 0 0  1.296875 0 0  1.3125 0 0  1.328125 0 0  1.34375 0 0  1.359375 0 0  1.375 0 0  1.390625 0 0  1.40625 0 0  1.421875 0 0  1.4375 0 0  1.453125 0 0  1.46875 0 0  1.484375 0 0  1.515920751924515 0 0  1.531989369316721 0 0  1.54820720925872 0 0  1.564575665560501 0 0  1.581096138674279 0 0  1.597770029901263 0 0  1.614598783332311 0 0  1.631583831055205 0 0  1.64872661129721 0 0  1.666028606716533 0 0  1.683491276608443 0 0  1.701116134125304 0 0  1.718904673324128 0 0  1.736858414799339 0 0  1.754978895814663 0 0  1.773267661782904 0 0  1.791726281103402 0 0  1.810356325314689 0 0  1.8291593848892 0 0  1.848137076690385 0 0  1.867291007717254 0 0  1.886622833871288 0 0  1.90613418642363 0 0  1.925826753299799 0 0  1.945702199101513 0 0  1.96576223584749 0 0  1.986008569283268 0 0  2.006442931928877 0 0  2.02706707547783 0 0  2.047882750887917 0 0  2.06889175187935 0 0  2.090095860038271 0 0  2.111496891648636 0 0  2.133096679109554 0 0  2.154897066851056 0 0  2.176899916687499 0 0  2.199107102752146 0 0  2.22152053937028 0 0  2.244142122958061 0 0  2.266973806444078 0 0  2.290017523268154 0 0  2.313275249499252 0 0  2.336748971745516 0 0  2.360440702338606 0 0  2.384352453384031 0 0  2.408486280477412 0 0  2.432844240041185 0 0  2.457428414757088 0 0  2.482240901796653 0 0  2.507283830121838 0 0  2.532559332080812 0 0  2.558069568787417 0 0  2.583816724966441 0 0  2.60980299606584 0 0  2.636030600971886 0 0  2.662501790984011 0 0  2.689218818279327 0 0  2.716183964547616 0 0  2.743399548861297 0 0  2.77086788244719 0 0  2.798591312896326 0 0  2.826572223178268 0 0  2.854812990138617 0 0  2.883316031690714 0 0  2.912083780657189 0 0  2.941118704633482 0 0  2.970423276998917 0 0  3 0.02999999999994495 0  3 0.05999999999987042 0  3 0.089999999999783 0  3 0.119999999999701 0  3 0.149999999999619 0  3 0.179999999999692 0  3 0.2099999999997737 0  3 0.2399999999998511 0  3 0.2699999999999185 0  2.970138294777171 0.3 0  2.940375666438236 0.3 0  2.910711782853056 0.3 0  2.881146331305122 0.3 0  2.851678975030285 0.3 0  2.822309388626621 0.3 0  2.793037250095074 0.3 0  2.76386223529133 0.3 0  2.734784017903872 0.3 0  2.705802289276642 0.3 0  2.676916713794697 0.3 0  2.648126987654635 0.3 0  2.619432780406184 0.3 0  2.590833779385199 0.3 0  2.562329669847737 0.3 0  2.533920134950189 0.3 0  2.505604855727852 0.3 0  2.477383539822502 0.3 0  2.449255847639465 0.3 0  2.421221492569094 0.3 0  2.393280152486815 0.3 0  2.36543151914496 0.3 0  2.337675285481809 0.3 0  2.310011142385583 0.3 0  2.282438797441587 0.3 0  2.254957931061538 0.3 0  2.227568248063605 0.3 0  2.200269436651085 0.3 0  2.173061204949961 0.3 0  2.145943251515011 0.3 0  2.118915272469994 0.3 0  2.091976978084957 0.3 0  2.065128060700849 0.3 0  2.038368218849433 0.3 0  2.01169717777258 0.3 0  1.985114624111908 0.3 0  1.958620267850966 0.3 0  1.93221382054972 0.3 0  1.905894991850698 0.3 0  1.879663489459713 0.3 0  1.853519019126419 0.3 0  1.827461291053897 0.3 0  1.801490031354372 0.3 0  1.775604937580312 0.3 0  1.74980572560258 0.3 0  1.724092118631866 0.3 0  1.698463829173586 0.3 0  1.672920575782554 0.3 0  1.647462076974085 0.3 0  1.622088043536933 0.3 0  1.5967981978949 0.3 0  1.571592267767068 0.3 0  1.546469970305736 0.3 0  1.521431023814044 0.3 0  1.496475156230927 0.3 0  1.471602093687753 0.3 0  1.446811560490646 0.3 0  1.422103279101731 0.3 0  1.397476971708191 0.3 0  1.37293238939876 0.3 0  1.348469231419202 0.3 0  1.324087248732772 0.3 0  1.299786165921677 0.3 0  1.275565710847046 0.3 0  1.251425617644257 0.3 0  1.227365618676339 0.3 0  1.203385446174014 0.3 0  1.179484853067473 0.3 0  1.155663548773374 0.3 0  1.131921292279077 0.3 0  1.108257802159295 0.3 0  1.084672829009693 0.3 0  1.061166115303374 0.3 0  1.037737392995421 0.3 0  1.01438640299116 0.3 0  0.991112899770314 0.3 0  0.9679166155523955 0.3 0  0.944797284182564 0.3 0  0.921754678526042 0.3 0  0.8987885143602501 0.3 0  0.8758985548820624 0.3 0  0.8530845484099929 0.3 0  0.8303462351786988 0.3 0  0.8076833651172373 0.3 0  0.7850956864865304 0.3 0  0.7625829601354557 0.3 0  0.7401449314598274 0.3 0  0.717781337993959 0.3 0  0.6954919649675473 0.3 0  0.6732765357561226 0.3 0  0.6511348120768439 0.3 0  0.6290665642016573 0.3 0  0.6070715355430467 0.3 0  0.5851494825775325 0.3 0  0.5633001690203812 0.3 0  0.5415233562273221 0.3 0  0.5198187909431873 0.3 0  0.4981862401387795 0.3 0  0.4766254686134248 0.3 0  0.4551362360485234 0.3 0  0.4337182975262159 0.3 0  0.4123714223228037 0.3 0  0.3910953802377493 0.3 0  0.3698899313205595 0.3 0  0.3487548463710963 0.3 0  0.3276898864081783 0.3 0  0.3066948129116018 0.3 0  0.2857694003037476 0.3 0  0.2649134227095047 0.3 0  0.2441266417321288 0.3 0  0.2234088223399122 0.3 0  0.2027597568977288 0.3 0  0.1821792020676698 0.3 0  0.1616669305402443 0.3 0  0.1412227158799362 0.3 0  0.12084633013886 0.3 0  0.1005375673448281 0.3 0  0.08029618164595353 0.3 0  0.06012194778526769 0.3 0  0.04001466495039718 0.3 0  0.01997408913631205 0.3 0  0 0.2800000000000553 0  0 0.2600000000001105 0  0 0.2400000000001658 0  0 0.2200000000002211 0  0 0.2000000000002764 0  0 0.1800000000002244 0  0 0.1600000000001691 0  0 0.140000000000115 0  0 0.1200000000000564 0  1.13346801534201 0.01255848438672509 0  1.003577645172735 0.09351054173913405 0  0.9777559943702486 0.1034978156913738 0  0.9524533750752109 0.1040889939962738 0  0.9296242411226409 0.1041520033606139 0  0.9046110503652111 0.104409422380137 0  0.8777709649694228 0.1053360318797398 0  0.8483859145648608 0.1061007868330701 0  0.8162363822948977 0.1052777104363292 0  0.7893110024210437 0.1060761643971561 0  0.7587949382612539 0.1067265405088633 0  0.7280603867732535 0.1069398153264939 0  0.6947001989413015 0.1075609887579097 0  0.6590363283767549 0.1076715322596598 0  0.6210028614493155 0.1072970410408442 0  1.1953125 0.01353164693413185 0  1.258193991486058 0.01269648635163345 0  1.3201967268638 0.01407907077719561 0  1.383538555392096 0.01434101079053473 0  1.445312500000001 0.01303671693628424 0  1.508925448095738 0.01398525724792267 0  0.9939176689634008 0.1034638089837981 0  1.120967497222226 0.2796788492172345 0  1.572835902117391 0.01424132418857359 0  1.637573277451887 0.01212536916586023 0  1.709730776795181 0.01466855431023635 0  1.005631976950563 0.07074019818158772 0  1.784944696816299 0.01454708406461822 0  0.5805605730631225 0.1101465090472147 0  1.855621181165637 0.01550931272897607 0  0.5366111276616774 0.1096761308243709 0  1.935200147913231 0.01760344159641829 0  1.214922267975168 0.2799787705802257 0  1.31178773425331 0.2792
[...]
<PointData  Scalars="pressure"> 
<DataArray  type="Float64"  Name="pressure"  format="ascii">1.5383912841569161e-01  -1.6748618136980475e-01  -2.1370187631124504e-01  -1.6106936897150845e-01  -4.2078684673254541e-02  0.0000000000000000e+00  0.0000000000000000e+00  1.5384658255150924e-01  1.4791300625965575e-01  1.4208237041925625e-01  1.3634565291930661e-01  1.3070132845567861e-01  1.2514788276213579e-01  1.1968383568213049e-01  1.1430775306289712e-01  1.0901816200598430e-01  1.0381366696741197e-01  9.8692878886281726e-02  9.3654389415201683e-02  8.8696848634818942e-02  8.3818941755294155e-02  7.9019302030264887e-02  7.4296629519842741e-02  6.9649711869874162e-02  6.5077144442762302e-02  6.0577734931971536e-02  5.6150238511483645e-02  5.1793348452944338e-02  4.7505898502243009e-02  4.3286761834699157e-02  3.9134573648432890e-02  3.5048255689823796e-02  3.1026509206121017e-02  2.7068230094794084e-02  2.3172379894142146e-02  1.9337670412708091e-02  1.5562914196894484e-02  1.1847059950433558e-02  8.1889681324681714e-03  4.5874327560028200e-03  1.0414554170886639e-03  -2.4502136376584318e-03  -5.8886023138274854e-03  -9.2749072700641366e-03  -1.2610219143195862e-02  -1.5895194492500132e-02  -1.9131722996835330e-02  -2.2320421034361611e-02  -2.5462394949183384e-02  -2.8558986411534804e-02  -3.1611230581501969e-02  -3.4619523748845034e-02  -3.7586045227911861e-02  -4.0511254236918856e-02  -4.3396302869071555e-02  -4.6242359844438953e-02  -4.9050449707886599e-02  -5.1821647659921727e-02  -5.4557177124172643e-02  -5.7258007820869247e-02  -5.9925133210512856e-02  -6.2559533731556399e-02  -6.5162873332950760e-02  -6.7735525233795377e-02  -7.0278822718189110e-02  -7.2793447323146271e-02  -7.5281502536373501e-02  -7.7743489340449071e-02  -8.0179587200289282e-02  -8.2591653806514523e-02  -8.4981372841972977e-02  -8.7348395487905947e-02  -8.9694910108384818e-02  -9.2021728349109919e-02  -9.4329098834712605e-02  -9.6618731294118826e-02  -9.8891588172400957e-02  -1.0114866001696227e-01  -1.0339186512713845e-01  -1.0562124233742966e-01  -1.0783739304322193e-01  -1.1004090369879944e-01  -1.1223567329329603e-01  -1.1442069408765980e-01  -1.1659671119637298e-01  -1.1876584413821957e-01  -1.2092855133298890e-01  -1.2308594316617731e-01  -1.2523927479750074e-01  -1.2739075908373479e-01  -1.2954096834270767e-01  -1.3169027260360644e-01  -1.3384146756238505e-01  -1.3599571960118473e-01  -1.3815450565692283e-01  -1.4031963343102852e-01  -1.4249279445035970e-01  -1.4467623501857965e-01  -1.4687238233755404e-01  -1.4908405590163870e-01  -1.5131467570603732e-01  -1.5356630197255275e-01  -1.5584560553849736e-01  -1.5815216489099573e-01  -1.6055484755605345e-01  -1.6266423780570782e-01  -1.6741207988686219e-01  -1.6863635866607118e-01  -1.7291512050630295e-01  -1.6853501894317977e-01  -2.0219067402878443e-01  -1.8131939147288789e-01  -1.7482261766406285e-01  -1.7007529586320469e-01  -1.6686135736301053e-01  -1.6444672759726628e-01  -1.6263691114260648e-01  -1.6130989795788625e-01  -1.6051222552799096e-01  -1.6031549120031638e-01  -1.6071876950194050e-01  -1.6150838549987273e-01  -1.6188011429627536e-01  -1.6167186996189253e-01  -1.6099822816738091e-01  -1.5994963839258997e-01  -1.5857015373185124e-01  -1.5684544606908749e-01  -1.5476333047915766e-01  -1.5235353272406324e-01  -1.4963416729558715e-01  -1.4661005463892990e-01  -1.4329572180766537e-01  -1.3970312300602175e-01  -1.3584510475812922e-01  -1.3174260260217321e-01  -1.2740918094486844e-01  -1.2285782986643407e-01  -1.1810720744732711e-01  -1.1317633725881227e-01  -1.0807634593664694e-01  -1.0283648417942512e-01  -9.7474863887329358e-02  -9.2007296181609674e-02  -8.6463387865602384e-02  -8.0861073265701106e-02  -7.5228344038098874e-02  -6.9587055554675287e-02  -6.3958162102418059e-02  -5.8371845721439893e-02  -5.2847747824109496e-02  -4.7410295864425765e-02  -3.6777981461863597e-02  -3.1590125393725223e-02  -2.6524083443401285e-02  -2.1611925425711571e-02  -1.6878919051325464e-02  -1.2327598633241990e-02  -7.9827572529102744e-03  -3.8492525155327754e-03  2.5751294635600692e-05  3.6649044155304556e-03  7.0683052843864653e-03  1.0214984766802849e-02  1.3106657501290817e-02  1.5749620068715459e-02  1.8147097387417519e-02  2.0303353383634874e-02  2.2232629535311264e-02  2.3934755198365767e-02  2.5422962812135533e-02  2.6726252370978917e-02  2.7832816953757139e-02  2.8771347365628933e-02  2.9554590053205296e-02  3.0189945521719611e-02  3.0697814955349328e-02  3.1082165561429915e-02  3.1373336859656646e-02  3.1561618535963079e-02  3.1667487150153724e-02  3.1695538428670691e-02  3.1653445112834647e-02  3.1550436548427319e-02  3.1395714877299072e-02  3.1193353076957069e-02  3.0944087796042075e-02  3.0655203163015104e-02  3.0327458913502275e-02  2.9963692510447646e-02  2.9565109088916068e-02  2.9132263932524334e-02  2.8665667967921409e-02  2.8165395500268874e-02  2.7630351124728746e-02  2.7060987328432737e-02  2.6454969057750244e-02  2.5811102511297125e-02  2.5130657487793674e-02  2.4408902121709850e-02  2.3644147063817220e-02  2.2840633164384717e-02  2.1989270831282871e-02  2.1096877657720687e-02  2.0153481261292835e-02  1.9167580959010722e-02  1.8131737773153436e-02  1.7042330338579367e-02  1.5909503846502089e-02  1.4719621871861294e-02  1.3483587857315016e-02  1.2195570479602761e-02  1.0854504198805565e-02  9.4605614578699981e-03  8.0156818603897874e-03  6.5229068904302367e-03  4.9727124689768788e-03  3.3830107249475058e-03  1.7374804876356515e-03  0.0000000000000000e+00  0.0000000000000000e+00  0.0000000000000000e+00  0.0000000000000000e+00  0.0000000000000000e+00  0.0000000000000000e+00  0.0000000000000000e+00  0.0000000000000000e+00  0.0000000000000000e+00  1.8807416736140456e-03  3.6339134173306573e-03  5.3590618341525570e-03  7.0311907351012443e-03  8.6539992724304834e-03  1.0226116468166287e-02  1.1746549408747657e-02  1.3213570652324601e-02  1.4624328896819307e-02  1.5976603199686454e-02  1.7266439973163381e-02  1.8491378322676517e-02  1.9646444410145982e-02  2.0728712734501172e-02  2.1733510685534529e-02  2.2654360818332196e-02  2.3491049404954136e-02  2.4232644685164208e-02  2.4874695933642440e-02  2.5411301064309964e-02  2.5835826080933696e-02  2.6141929764032120e-02  2.6324151612530360e-02  2.6371965422929709e-02  2.6284286871480701e-02  2.6049254209683854e-02  2.5665139348552260e-02  2.5120706201728935e-02  2.4410970466479262e-02  2.3533366505494511e-02  2.2477136784866871e-02  2.1236804570856027e-02  1.9827328656510775e-02  1.8233724908637811e-02  1.6430571140532358e-02  1.4456840681031686e-02  1.2289990526716827e-02  9.9296402167630138e-03  7.3771221804947787e-03  4.6400350594651644e-03  1.7083988860512628e-03  -1.4035851138961906e-03  -4.7050221404630523e-03  -8.1855992755986030e-03  -1.1856760735028457e-02  -1.5702146952487155e-02  -1.9723767782377579e-02  -2.3912006753884468e-02  -2.8270283634215996e-02  -3.2784340815616368e-02  -3.7451168127172543e-02  -4.2259178169311483e-02  -4.7194665731286618e-02  -5.2249068476000964e-02  -5.7406837154665193e-02  -6.2644424141072408e-02  -6.7902955643640378e-02  -7.3230947385359499e-02  -7.8542819532309363e-02  -8.3781359601260277e-02  -8.8952223540290837e-02  -9.3985393839730341e-02  -9.8865153985794554e-02  -1.0348764247561552e-01  -1.0784912167938820e-01  -1.1184432662760534e-01  -1.1546280392522990e-01  -1.1859798460852090e-01  -1.2125525978568436e-01  -1.2330430895928550e-01  -1.2476048098946621e-01  -1.2554839779505111e-01  -1.2553432750793972e-01  -1.2488706723404781e-01  -1.2345641346530629e-01  -1.2124216848592546e-01  -1.1835466456512844e-01  -1.1480866577092567e-01  -1.1073049446817396e-01  -1.0618770346338641e-01  -1.0117740602674435e-01  -9.5843955491939442e-02  -9.0227899039969514e-02  -8.4429005122596518e-02  -7.8451685325058487e-02  -7.2326144199558795e-02  -6.6109119160779953e-02  -5.9814480909403230e-02  -5.3454445720017715e-02  -4.7054474708152320e-02  -4.0620080781160535e-02  -3.4171092249343019e-02  -2.7710609665097224e-02  -2.1241466004286481e-02  -1.4775972948117012e-02  -8.3154382492411257e-03  -1.8612059002320882e-03  4.5829995397785013e-03  1.1013839670840934e-02  1.7430093047063569e-02  2.3831183144704570e-02  3.0215476558738238e-02  3.6582758353018795e-02  4.2931322371593424e-02  4.9261531267379643e-02  5.5572616708837480e-02  6.1864282023207984e-02  6.8136424110402452e-02  7.4388711055888582e-02  8.0621087569806599e-02  8.6833511530410440e-02  9.3025877911903504e-02  9.9198155374429747e-02  1.0535034024248871e-01  1.1148244106722099e-01  1.1759443206692770e-01  1.2368638448457392e-01  1.2975831616145789e-01  1.3581025443595490e-01  1.4184225316250937e-01  1.4785434567961400e-01  1.5384655367014147e-01  1.5384624354266468e-01  1.5384548672008364e-01  1.5384429910640618e-01  1.5384285676310874e-01  1.5384141293282075e-01  1.5384022283751358e-01  1.5383946096921267e-01  1.5383915194878972e-01  -1.5319887230193349e-01  -1.8559506639449250e-01  -1.6440488777186699e-01  -1.5024702300326775e-01  -1.3934924344188668e-01  -1.2854953755283249e-01  -1.1786541382812116e-01  -1.0690784317268792e-01  -9.5546680855080710e-02  -8.6412686623475149e-02  -7.6357472021355899e-02  -6.6467746836908675e-02  -5.5930963589916283e-02  -4.4828383196841945e-02  -3.3118584760076147e-02  -1.4136187488458501e-01  -1.2501306494293468e-01  -1.0559581057458164e-01  -8.3603145486277536e-02  -6.1428843839647120e-02  -3.9454128179963355e-02  -1.7757138894034896e-01  -1.2344353205713937e-01  -1.9624202009955186e-02  -2.8357786029165563e-03  1.1255707019908667e-02  -1.6633007172440828e-01  2.1212620709680916e-02  -2.0770788518327976e-02  2.6890855564618413e-02  -7.4297175925235144e-03  3.0216593932364855e-02  -1.1310303084337024e-01  -9.5807279683901625e-02  3.1501687624270240e-02  -7.5462797882751106e-02  6.3883656678604545e-03  -4.9325242886766735e-02  3.1378939995903188e-02  2.1253508222180993e-02  -1.5877804721594521e-01  3.0416115918534534e-02  -2.5860381332836295e-02  -1.2475969604854924e-01  3.6659153891006019e-02  2.8844805950033466e-02  -2.9940005682292346e-03  5.4158714321991340e-02  5.8775087295775547e-03  2.6691870531458533e-02  1.3477116384469074e-02  7.1450754072856407e-02  -1.1949551423629098e-01  2.4037022176825899e-02  1.9022865552024489e-02  -1.0834202518150177e-01  2.3016393082140246e-02  2.0604111854132003e-02  -9.3028335269967996e-02  9.1651502509102353e-02  1.0566881462974854e-01  -1.3668744592587410e-02  1.7555824410581365e-02  1.3931010149062338e-02  2.5325793342265503e-02  -7.5592120825348691e-02  2.6248730253517601e-02  -1.5697758707753529e-01  -5.0694350814692146e-02  2.5526885420071026e-02  1.2312074052294697e-01  -3.0978870021165117e-02  1.0129060576356800e-02  2.3006642586168392e-02  -1.1424948104262634e-02  1.4389083464717492e-02  2.0120480207978356e-02  4.6097074801749099e-02  1.6563628699222007e-02  6.5056645035637045e-02  8.3833296700447410e-02  1.2436210400648207e-02  1.1543276106683366e-01  1.5753597646803949e-03  1.4826292106517280e-01  -1.6150479701161877e-01  7.9353754808827413e-03  5.6274229718619746e-03  1.3323527922458803e-01  -1.7281600893717888e-01  -1.6084435526469942e-01  -1.1932708471815276e-01  -6.2868809012318422e-02  8.6737143313519798e-04  2.6691273397531908e-02  1.3357502646478037e-01  -3.9975277726463004e-02  -6.4566053477467522e-02  -8.5750943305147848e-02  -1.0502095216056603e-01  8.1713601924720575e-02  2.6071333461533966e-02  6.2539605460999750e-02  9.6074578629364887e-02  2.4468603486969481e-02  2.2405970163083141e-02  4.4836261513538145e-02  2.5363518671342213e-02  2.7852000615456122e-02  2.9296579783079698e-02  2.9701263519809947e-02  3.0987158358893763e-02  3.1565857971408033e-02  3.1097916778808177e-02  -2.9413731160886872e-02  1.3703146865152659e-02  2.8858204106532274e-02  2.4377633485059010e-02  -6.8775858624327312e-04  1.6829126152469984e-02  4.9970283046399666e-03  -1.0387249697164669e-02  1.3169462028635975e-03  -1.4617279683685015e-02  -2.6563504839067404e-02  1.4860263897774767e-01  -3.8739343469383562e-02  -5.0448429959429650e-02  -6.1259120141093602e-02  -7.1651330884403883e-02  -8.1463273891527896e-02  -9.0786118968885943e-02  -1.4774290437863338e-01  -1.0231801347315451e-01  -1.1338580331516741e-01  -1.2424180966100254e-01  -1.3373480987765196e-01  -1.3508911424352604e-01  -9.5072537750203398e-02  -1.1519231471207014e-01  -7.3462371103280438e-02  -5.0434166784993149e-02  -1.4590336523109032e-01  -1.6888010059831005e-01  1.6508861103629675e-03  1.4810619200086919e-01  4.4257034809377172e-03  -1.6127931742285911e-01  1.4885451372072947e-01  1.3437140901569327e-03  1.4475056777783776e-01  -1.6124475925871895e-01  -1.6090641087405166e-01  -1.6044426395412423e-01  -1.6094554263180938e-01  -1.6046571097020085e-01  -1.6129273544491954e-01  -1.6063177764849740e-01  -1.6174100422583657e-01  -1.6090981591207329e-01  -1.6205543822848484e-01  -1.6110563063338573e-01  -1.6197488271245350e-01  -1.6082965415681033e-01  -1.6133777770247912e-01  -1.6005439350629311e-01  -1.6025420642399080e-01  -1.5879488414185483e-01  -1.5879491179120828e-01  -1.5716968815013094e-01  -1.5682517595027864e-01  -1.5488982677467794e-01  -1.5851850537743600e-01  -1.5533325179626231e-01  -1.5267345945070784e-01  -1.5593781951976865e-01  -1.5792718732361830e-01  -1.5289687255219736e-01  -1.5009309412801181e-01  -1.5023731571547816e-01  -1.4707890847217828e-01  -1.4710373235142604e-01  -1.4363946372067896e-01  -1.4357527521550853e-01  -1.4003895236106387e-01  -1.3964745408390972e-01  -1.3541103403397217e-01  -1.3511330372209357e-01  -1.3104669719578832e-01  -1.3034230857565829e-01  -1.2612316015291744e-01  -1.2518430752518717e-01  -1.2088574159185314e-01  -1.1972588425455229e-01  -1.1539374846146862e-01  -1.1397580287337183e-01  -1.0967622272921221e-01  -1.0796757962331958e-01  -1.0375117453218220e-01  -1.0176563868586380e-01  -9.7693712094668858e-02  -9.5386629489778635e-02  -9.1541339270551664e-02  -8.8788158054195751e-02  -1.5433870700754740e-01  -1.5621465949412910e-01  -8.5314593332850297e-02  -8.2155567538293769e-02  -7.9081792008673338e-02  -7.5940333150827780e-02  -7.2945262985897444e-02  -6.9469607438142025e-02  -6.6902530152696690e-02  -6.3119736143873048e-02  -1.4910526089916953e-01  -6.1065624621917752e-02  -5.6880610611553167e-02  -5.5141389476547342e-02  -5.0767454722897093e-02  -4.9615149256543367e-02  -4.4925610149407234e-02  -1.5185506328815762e-01  -1.5396001043021776e-01  -1.6247242382898749e-01  -4.4223769110753618e-02  -3.9269682915776830e-02  -3.9096680608181701e-02  -3.3884070674768320e-02  -3.4216228589474491e-02  -2.8799620506108816e-02  -1.5936348833035324e-01  -2.9598827108444619e-02  -2.3983935372661806e-02  -1.3947745333100717e-01  -2.5231418158361767e-02  -1.9483992847038098e-02  -2.1146489930406544e-02  -1.5292573967097314e-02  -1.7264798853110708e-02  -1.1401838407816684e-02  -1.5942287845410411e-01  -1.2614331467335826e-01  -1.3706267845160080e-02  -7.8129419665535355e-03  -1.4850423178229127e-01  -1.4994042493176582e-01  -1.4676465242056122e-01  -1.1044706627174743e-01  -1.0334014650645642e-02  -4.3706124481300238e-03  -7.2947275510969163e-03  -1.2717793871774958e-03  -4.4059802878295825e-03  1.4203354552803766e-03  -4.0085811800706229e-02  -1.7551735933375634e-03  -2.3437531109684880e-02  -5.9054448231721714e-02  -1.7271767118761398e-03  3.8927325047682301e-03  7.0241888615103715e-03  9.3474400805934645e-03  6.2074241996527444e-03  1.1448412191141531e-02  8.3905935267088363e-03  1.3413503666202293e-02  1.0365262052201629e-02  1.5133200327002320e-02  1.2175662009313909e-02  1.6718183276206434e-02  1.3878728136698298e-02  1.8115477042758184e-02  1.5359266708241229e-02  1.9393297547308772e-02  1.6834710210712867e-02  2.0658849216786564e-02  1.8153571505215956e-02  2.1704369123752690e-02  1.9395145999282173e-02  2.2615571334863294e-02  2.0392760182426320e-02  2.3445436381768939e-02  -7.8746981238534866e-02  -9.3651967380339388e-02  2.1409317575234441e-02  2.4148679749070187e-02  2.2372857687594925e-02  2.4816296289983594e-02  -1.4633020506463076e-01  -1.1180536816529821e-01  2.3232349123956598e-02  2.5371423995812194e-02  -1.2877176974418991e-01  -7.6552695876784538e-02  -1.4425637638733801e-01  -1.4530955699850273e-01  -1.5182154746645846e-01  -1.4607768908892269e-01  -1.5165530792663692e-01  -1.4617088788221422e-01  -1.5220088823071887e-01  -1.4575150949816471e-01  -1.5011052935299046e-01  -1.4429199155424735e-01  -1.4880069130679222e-01  -1.4237476188500775e-01  -1.4536358107836173e-01  -1.3971864182481836e-01  -1.4198069193763602e-01  -1.3679355971546089e-01  -1.3837065301344009e-01  -1.3352554189009491e-01  -1.3462927372034519e-01  -1.3011572361108434e-01  -1.3079983633418138e-01  -1.2656882384092230e-01  -1.2695635871043437e-01  -1.2297052156183744e-01  -1.2310521901041949e-01  -1.1937925631535305e-01  -1.1893258425367667e-01  -1.1548648647207516e-01  -1.1557129013255786e-01  -1.1196782111907502e-01  -1.1179131980734737e-01  -1.0835963691566515e-01  -1.0819231702867294e-01  -1.0479231096655289e-01  -1.0434924552934403e-01  -1.0115736130172329e-01  -1.3432083433980568e-01  -1.1157550116335693e-01  -1.2545637726847692e-01  -1.0063967859045085e-01  -9.7442889202562027e-02  -9.7716185753307871e-02  -9.4182547380473269e-02  -9.3687338768915662e-02  -9.0567716821663605e-02  -8.9886144683216831e-02  -8.6894153347542857e-02  -8.6100001168778320e-02  -8.3160333303745254e-02  -9.0326670260551134e-02  -1.5687362993600423e-01  -1.5087040735397800e-01  -8.2375001171405671e-02  -7.9370827030351310e-02  -8.0111665674624993e-02  -7.6331489349020024e-02  -7.5557690422118587e-02  -7.2571267582235130e-02  -7.1687474632476295e-02  -6.8784253111798144e-02  -1.4325277159573782e-01  -7.3082342871268496e-02  -6.7840637831104056e-02  -6.5011502491907028e-02  -1.3496616447596638e-01  -6.4108216378228847e-02  -6.1182094610576457e-02  -6.2357057848595056e-02  -5.8208747803195508e-02  -5.7243913229291718e-02  -5.4160984730777462e-02  -5.5083062040011517e-02  -5.1039365661512896e-02  -5.0130726874435469e-02  -4.7003726178043069e-02  -4.6084735948045366e-02  -4.2874332452316408e-02  -4.3818135810942779e-02  -3.9693312290975148e-02  -3.8718492951153954e-02  -3.5563420000730921e-02  -3.4626136749006338e-02  -3.1450802969134259e-02  -1.4100204470178410e-01  -1.1153983949653307e-01  -1.2669402401229396e-01  -3.0606532568453304e-02  -2.7370074353269689e-02  -2.8226392808026524e-02  -2.3992987534312431e-02  -2.3141077570692618e-02  -1.9765330015865976e-02  -2.4848125605874679e-02  2.3917669420781031e-02  2.5835991960410813e-02  2.4542735166946422e-02  2.6232630494792544e-02  2.5102502414643034e-02  2.6556009365561607e-02  -9.3033617562002541e-02  -4.9146666751171159e-02  -1.6231146812854860e-01  -1.8880783300262202e-02  -1.5572714359312600e-02  -1.0370706849531497e-01  2.1020080407489199e-02  2.5457591408277983e-02  1.1957588592932647e-02  2.5571486429507528e-02  2.6798153724622947e-02  2.7868434719093515e-02  2.7895629457956778e-02  2.6965105530224281e-02  2.7869446039606564e-02  2.7065175071805416e-02  2.7783611162443336e-02  2.7082736407268215e-02  2.7629427088241301e-02  2.7028676950909089e-02  2.7417249675654926e-02  2.6891084417676410e-02  2.7133214767080416e-02  2.6677418055235384e-02  2.6789747191677017e-02  2.6392120580270816e-02  2.6384916600136157e-02  2.6038456813493208e-02  2.5921561442569539e-02  2.5606513612132533e-02  2.5384222802904696e-02  2.5093066320792248e-02  2.4796120882066015e-02  2.4502875652579578e-02  2.4121504522373948e-02  2.3854124824977629e-02  2.3407442467146072e-02  2.3113985618687990e-02  2.2608692209138928e-02  2.2313910979858392e-02  2.1762294082452380e-02  2.7409240592960335e-02  -4.0704487903714233e-02  -7.4709170485848519e-02  -1.4565298482026782e-02  -1.1270515634240783e-02  -1.2268630055817697e-02  -7.8155015876505904e-03  -8.8579293137218199e-03  -4.3017842942777570e-03  -3.3789403885995735e-03  1.5418080480119673e-04  1.1972970895422919e-03  4.7025561308556884e-03  3.7567852751234565e-03  8.2930752649108992e-03  9.0971671670088093e-03  1.2794341420143331e-02  1.35848426920