<?xml version="1.0"?>
<VTKFile type="UnstructuredGrid"  version="0.1"  >
<UnstructuredGrid>
<Piece  NumberOfPoints="2705" NumberOfCells="5060">
<Points>
<DataArray  type="Float64"  NumberOfComponents="3"  format="ascii">0 0.1 0  0.98 0.1 0  1 0.1 0  1 0 0  3 0 0  3 0.3 0  0 0.3 0  0.01975375321854102 0.1 0  0.03918897458218897 0.1 0  0.05831079002627837 0.1 0  0.07712425666319796 0.1 0  0.0956343475259058 0.1 0  0.1138459546796227 0.1 0  0.1317638870668193 0.1 0  0.1493928840275937 0.1 0  0.1667376092280033 0.1 0  0.1838026357802664 0.1 0  0.2005924801287244 0.1 0  0.2171115811543574 0.1 0  0.2333643037107681 0.1 0  0.2493549444060462 0.1 0  0.2650877293306821 0.1 0  0.2805668058011438 0.1 0  0.2957962848620976 0.1 0  0.3107801766802674 0.1 0  0.3255224447361181 0.1 0  0.3400269848175519 0.1 0  0.3542976327080778 0.1 0  0.3683381609158136 0.1 0  0.3821522744564845 0.1 0  0.3957436316838916 0.1 0  0.4091158196437086 0.1 0  0.4222723742184605 0.1 0  0.4352167733293057 0.1 0  0.4479524348643424 0.1 0  0.4604827295467524 0.1 0  0.4728109659990664 0.1 0  0.4849404035409129 0.1 0  0.4968742471455402 0.1 0  0.508615651843175 0.1 0  0.520167721130924 0.1 0  0.5315335063628542 0.1 0  0.5427160117228604 0.1 0  0.5537181940261912 0.1 0  0.564542961924507 0.1 0  0.575193173270606 0.1 0  0.5856716438765114 0.1 0  0.5959811458006617 0.1 0  0.6061243988680743 0.1 0  0.6161040893285659 0.1 0  0.6259228503970299 0.1 0  0.6355832809287655 0.1 0  0.6450879281079505 0.1 0  0.6544393102991295 0.1 0  0.663639896558931 0.1 0  0.6726921201956305 0.1 0  0.6815983691630338 0.1 0  0.6903610031396646 0.1 0  0.6989823343332418 0.1 0  0.7074646404270378 0.1 0  0.7158101645005117 0.1 0  0.7240211149852543 0.1 0  0.7320996585612525 0.1 0  0.7400479319727645 0.1 0  0.7478680336617921 0.1 0  0.755562036504958 0.1 0  0.7631319665092091 0.1 0  0.7705798279317605 0.1 0  0.777907588066146 0.1 0  0.7851171851013118 0.1 0  0.7922105226004981 0.1 0  0.7991894774550319 0.1 0  0.8060558928136696 0.1 0  0.812811583201334 0.1 0  0.8194583352091183 0.1 0  0.8259979035038147 0.1 0  0.8324320194413813 0.1 0  0.8387623808293405 0.1 0  0.8449906627004957 0.1 0  0.8511185094880469 0.1 0  0.8571475426008311 0.1 0  0.8630793533568246 0.1 0  0.8689155114558531 0.1 0  0.8746575581239063 0.1 0  0.8803070109173519 0.1 0  0.885865363938836 0.1 0  0.8913340851680313 0.1 0  0.8967146206523592 0.1 0  0.9020083930695622 0.1 0  0.9072167995950768 0.1 0  0.9123412183131177 0.1 0  0.9173830029719022 0.1 0  0.9223434865647732 0.1 0  0.9272239785872722 0.1 0  0.9320257720706087 0.1 0  0.9367501330378739 0.1 0  0.9413983102716995 0.1 0  0.9459715351562933 0.1 0  0.9504710127113115 0.1 0  0.9548979346500661 0.1 0  0.9592534708344373 0.1 0  0.9635387708980176 0.1 0  0.9677549682252325 0.1 0  0.971903177251235 0.1 0  0.9759844952956497 0.1 0  0.9840000000000086 0.1 0  0.987999999999974 0.1 0  0.9919999999999393 0.1 0  0.9959999999999913 0.1 0  1 0.09591793123533533 0  1 0.09133596463859224 0  1 0.08619288104391448 0  1 0.08041996484521211 0  1 0.07394008421771697 0  1 0.06666666567302955 0  1 0.05850252932209174 0  1 0.04933859630113544 0  1 0.03905242821848202 0  1 0.02750659386753798 0  1 0.01454683679239736 0  1.016020550394751 0 0  1.032153385236268 0 0  1.048399294954455 0 0  1.064759072477566 0 0  1.081233515533994 0 0  1.097823427949778 0 0  1.114529617202262 0 0  1.131352900433151 0 0  1.148294101583001 0 0  1.165354040242892 0 0  1.182533552515274 0 0  1.199833475866261 0 0  1.217254652230041 0 0  1.234797936155386 0 0  1.252464178425587 0 0  1.270254255168802 0 0  1.288169006479837 0 0  1.306209325437119 0 0  1.324376095845444 0 0  1.342670189274758 0 0  1.36109251192469 0 0  1.379643952662183 0 0  1.398325417002887 0 0  1.41713782425084 0 0  1.436082080652155 0 0  1.455159124826087 0 0  1.474369882349725 0 0  1.493715277083147 0 0  1.513196265767424 0 0  1.532813806019548 0 0  1.552568842185085 0 0  1.572462339217603 0 0  1.592495269056204 0 0  1.612668607023916 0 0  1.632983343549927 0 0  1.653440462592259 0 0  1.674040969525434 0 0  1.694785855791528 0 0  1.715676155173469 0 0  1.73671286736412 0 0  1.757897026351256 0 0  1.779229664888713 0 0  1.800711824755784 0 0  1.82234455324737 0 0  1.84412890624001 0 0  1.866065945376083 0 0  1.888156733760833 0 0  1.910402369606354 0 0  1.93280391688052 0 0  1.955362477143487 0 0  1.978079144436244 0 0  2.000955036197599 0 0  2.023991269446432 0 0  2.047188964767926 0 0  2.0705492490968 0 0  2.094073263768322 0 0  2.117762156205791 0 0  2.141617082624289 0 0  2.16563921705895 0 0  2.189829717267639 0 0  2.214189770072521 0 0  2.238720556051706 0 0  2.263423288009975 0 0  2.288299155588418 0 0  2.313349376228164 0 0  2.338575176964319 0 0  2.363977783618623 0 0  2.389558433680938 0 0  2.415318384393194 0 0  2.441258882154933 0 0  2.467381196024248 0 0  2.493686599690135 0 0  2.520176385407638 0 0  2.546851827526312 0 0  2.573714242586076 0 0  2.600764942577301 0 0  2.628005231328753 0 0  2.655436452882501 0 0  2.683059932630583 0 0  2.710877029970518 0 0  2.73888909859219 0 0  2.767097496229523 0 0  2.79550361535459 0 0  2.824108829114479 0 0  2.852914536031111 0 0  2.881922140827726 0 0  2.911133056443728 0 0  2.940548720418847 0 0  2.970170550362583 0 0  3 0.02999999999994495 0  3 0.05999999999987042 0  3 0.089999999999783 0  3 0.119999999999701 0  3 0.149999999999619 0  3 0.179999999999692 0  3 0.2099999999997737 0  3 0.2399999999998511 0  3 0.2699999999999185 0  2.970138294777171 0.3 0  2.940375666438236 0.3 0  2.910711782853056 0.3 0  2.881146331305122 0.3 0  2.851678975030285 0.3 0  2.822309388626621 0.3 0  2.793037250095074 0.3 0  2.76386223529133 0.3 0  2.734784017903872 0.3 0  2.705802289276642 0.3 0  2.676916713794697 0.3 0  2.648126987654635 0.3 0  2.619432780406184 0.3 0  2.590833779385199 0.3 0  2.562329669847737 0.3 0  2.533920134950189 0.3 0  2.505604855727852 0.3 0  2.477383539822502 0.3 0  2.449255847639465 0.3 0  2.421221492569094 0.3 0  2.393280152486815 0.3 0  2.36543151914496 0.3 0  2.337675285481809 0.3 0  2.310011142385583 0.3 0  2.282438797441587 0.3 0  2.254957931061538 0.3 0  2.227568248063605 0.3 0  2.200269436651085 0.3 0  2.173061204949961 0.3 0  2.145943251515011 0.3 0  2.118915272469994 0.3 0  2.091976978084957 0.3 0  2.065128060700849 0.3 0  2.038368218849433 0.3 0  2.01169717777258 0.3 0  1.985114624111908 0.3 0  1.958620267850966 0.3 0  1.93221382054972 0.3 0  1.905894991850698 0.3 0  1.879663489459713 0.3 0  1.853519019126419 0.3 0  1.827461291053897 0.3 0  1.801490031354372 0.3 0  1.775604937580312 0.3 0  1.74980572560258 0.3 0  1.724092118631866 0.3 0  1.698463829173586 0.3 0  1.672920575782554 0.3 0  1.647462076974085 0.3 0  1.622088043536933 0.3 0  1.5967981978949 0.3 0  1.571592267767068 0.3 0  1.546469970305736 0.3 0  1.521431023814044 0.3 0  1.496475156230927 0.3 0  1.471602093687753 0.3 0  1.446811560490646 0.3 0  1.422103279101731 0.3 0  1.397476971708191 0.3 0  1.37293238939876 0.3 0  1.348469231419202 0.3 0  1.324087248732772 0.3 0  1.299786165921677 0.3 0  1.275565710847046 0.3 0  1.251425617644257 0.3 0  1.227365618676339 0.3 0  1.203385446174014 0.3 0  1.179484853067473 0.3 0  1.155663548773374 0.3 0  1.131921292279077 0.3 0  1.108257802159295 0.3 0  1.084672829009693 0.3 0  1.061166115303374 0.3 0  1.037737392995421 0.3 0  1.01438640299116 0.3 0  0.991112899770314 0.3 0  0.9679166155523955 0.3 0  0.944797284182564 0.3 0  0.921754678526042 0.3 0  0.8987885143602501 0.3 0  0.8758985548820624 0.3 0  0.8530845484099929 0.3 0  0.8303462351786988 0.3 0  0.8076833651172373 0.3 0  0.7850956864865304 0.3 0  0.7625829601354557 0.3 0  0.7401449314598274 0.3 0  0.717781337993959 0.3 0  0.6954919649675473 0.3 0  0.6732765357561226 0.3 0  0.6511348120768439 0.3 0  0.6290665642016573 0.3 0  0.6070715355430467 0.3 0  0.5851494825775325 0.3 0  0.5633001690203812 0.3 0  0.5415233562273221 0.3 0  0.5198187909431873 0.3 0  0.4981862401387795 0.3 0  0.4766254686134248 0.3 0  0.4551362360485234 0.3 0  0.4337182975262159 0.3 0  0.4123714223228037 0.3 0  0.3910953802377493 0.3 0  0.3698899313205595 0.3 0  0.3487548463710963 0.3 0  0.3276898864081783 0.3 0  0.3066948129116018 0.3 0  0.2857694003037476 0.3 0  0.2649134227095047 0.3 0  0.2441266417321288 0.3 0  0.2234088223399122 0.3 0  0.2027597568977288 0.3 0  0.1821792020676698 0.3 0  0.1616669305402443 0.3 0  0.1412227158799362 0.3 0  0.12084633013886 0.3 0  0.1005375673448281 0.3 0  0.08029618164595353 0.3 0  0.06012194778526769 0.3 0  0.04001466495039718 0.3 0  0.01997408913631205 0.3 0  0 0.2800000000000553 0  0 0.2600000000001105 0  0 0.2400000000001658 0  0 0.2200000000002211 0  0 0.2000000000002764 0  0 0.1800000000002244 0  0 0.1600000000001691 0  0 0.140000000000115 0  0 0.1200000000000564 0  1.139147342155451 0.01402312796110374 0  1.003846432965526 0.09424410338552042 0  0.9779237415493457 0.10303715329271 0  0.9525322729471357 0.1037883113413676 0  0.9297268847131464 0.1045730213771781 0  0.9046089814431624 0.104336569409788 0  0.877471620806838 0.1038902524152954 0  0.8484650538876116 0.1052432520737866 0  0.8159640469246969 0.1059371394421246 0  0.7886638538509052 0.1060934813339016 0  0.7587098578963086 0.1078079872398564 0  0.7267218807318911 0.1066246423921731 0  0.6933049262001144 0.1065261986562333 0  0.6579684410383846 0.1078243939978959 0  0.6214208701021879 0.1087048760815267 0  0.9941749516486179 0.1037853116611355 0  1.120978489398116 0.279674477539142 0  1.208544064048151 0.01503467720016028 0  1.277910333952869 0.01779594515292307 0  1.351715717346224 0.01850593010538557 0  1.427966398080389 0.0186283585208804 0  1.50319238505989 0.01550695005010656 0  0.5804324085735586 0.1090014561521007 0  1.005955353234479 0.07030337494537306 0  1.582478804136902 0.01728864997636526 0  0.5372897138364388 0.1092087118973372 0  1.663740716058847 0.0177784735569346 0  0.4914692535170423 0.110729061919444 0  1.747243287282295 0.01944243088977818 0  1.238974330067154 0.2790657993464123 0  1.834291106016765 0.02121111407792533 0  0.44060840912
[...]
<PointData  Scalars="pressure"> 
<DataArray  type="Float64"  Name="pressure"  format="ascii">2.1366383260727725e-01  -1.1507613431270991e-01  -1.7454315748078580e-01  -1.1384508684992919e-01  0.0000000000000000e+00  0.0000000000000000e+00  2.1367184120121976e-01  2.0773770830057497e-01  2.0190706628933233e-01  1.9617034353744175e-01  1.9052600041109549e-01  1.8497253746965736e-01  1.7950847594973951e-01  1.7413232635898829e-01  1.6884271681690163e-01  1.6363814693018111e-01  1.5851729056522176e-01  1.5347876329956436e-01  1.4852113126276012e-01  1.4364312277933175e-01  1.3884341461603511e-01  1.3412064019775660e-01  1.2947357799722553e-01  1.2490094716451058e-01  1.2040136966444724e-01  1.1597375250232488e-01  1.1161677903259476e-01  1.0732917775395133e-01  1.0310988240879072e-01  9.8957554933569558e-02  9.4871108175253821e-02  9.0849343904125732e-02  8.6891069666490114e-02  8.2995110041626213e-02  7.9160382853387348e-02  7.5385713199655369e-02  7.1670001810672679e-02  6.8012063356804750e-02  6.4410883763455481e-02  6.0865284868609988e-02  5.7374198426386677e-02  5.3936537665963936e-02  5.0551164879241786e-02  4.7217075286581520e-02  4.3933123858397864e-02  4.0698352264161304e-02  3.7511584742373816e-02  3.4371867909981216e-02  3.1278047003896137e-02  2.8229200601262640e-02  2.5224277345627162e-02  2.2262108680443402e-02  1.9341728188820642e-02  1.6462224436130043e-02  1.3622641525861652e-02  1.0821592616468978e-02  8.0586681287212955e-03  5.3325024166448231e-03  2.6417025924615721e-03  -1.3955688185160191e-05  -2.6352220101690219e-03  -5.2239656170543353e-03  -7.7814088042931166e-03  -1.0306770446434396e-02  -1.2801962797403341e-02  -1.5268902805029608e-02  -1.7706940308566954e-02  -2.0117525791969234e-02  -2.2501514632277262e-02  -2.4859944388940240e-02  -2.7193506093191419e-02  -2.9503505416822322e-02  -3.1789969020480029e-02  -3.4054292211492608e-02  -3.6297052345041908e-02  -3.8519294826919542e-02  -4.0721444114792449e-02  -4.2904224867344007e-02  -4.5069100410870339e-02  -4.7215551179823276e-02  -4.9345637704643078e-02  -5.1459395462979902e-02  -5.3557596930835297e-02  -5.5639442809201217e-02  -5.7707636619813901e-02  -5.9762383762728064e-02  -6.1803553705812919e-02  -6.3831710677409739e-02  -6.5847255428367765e-02  -6.7851529153907547e-02  -6.9843402347436842e-02  -7.1824260508889737e-02  -7.3794263602164969e-02  -7.5753082329942587e-02  -7.7700377753037841e-02  -7.9637531224869509e-02  -8.1560122901972398e-02  -8.3474131622341768e-02  -8.5372759167382559e-02  -8.7256518772299285e-02  -8.9123785476615452e-02  -9.0969105141652004e-02  -9.2758574990231574e-02  -9.4979605571498246e-02  -9.4414839516631904e-02  -9.4383967273719394e-02  -8.3978760853063314e-02  -8.9437131488436128e-02  -9.0738895567104891e-02  -1.5834289208248911e-01  -1.3690504728184411e-01  -1.2911273268311507e-01  -1.2403183821820979e-01  -1.2049090292702236e-01  -1.1785008520941906e-01  -1.1584590297603983e-01  -1.1436031426329686e-01  -1.1343895243592460e-01  -1.1314133018850289e-01  -1.1352225249659113e-01  -1.1423076268936888e-01  -1.1454397886355787e-01  -1.1416144030299183e-01  -1.1330042221469000e-01  -1.1199724220960533e-01  -1.1036582807668743e-01  -1.0835476662322825e-01  -1.0599450094772464e-01  -1.0327723604808531e-01  -1.0021605301743440e-01  -9.6815114779295761e-02  -9.3079777745818396e-02  -8.9014148704072149e-02  -8.4631542722801989e-02  -7.9940810840014045e-02  -7.4949027079080896e-02  -6.9674402120381854e-02  -6.4141331256194034e-02  -5.8371215742317371e-02  -5.2390200745250262e-02  -4.6225882859263795e-02  -3.9919135064245874e-02  -3.3507632517015912e-02  -2.7025639478195852e-02  -2.0521550722224266e-02  -1.4046566584109525e-02  -7.6445807977672513e-03  -1.3552458483267814e-03  4.7672957540327941e-03  1.0678879062038130e-02  1.6340549655721803e-02  2.1720133395558096e-02  2.6775233633623764e-02  3.1485703132237461e-02  3.5831277076439738e-02  3.9795573738698832e-02  4.3371767064236913e-02  4.6555168364015513e-02  4.9351084633908852e-02  5.1773733972696585e-02  5.3843561795455963e-02  5.5555285998222584e-02  5.6952728231252359e-02  5.8045179152146208e-02  5.8858967872639570e-02  5.9430408208499479e-02  5.9767355333376120e-02  5.9901041043053938e-02  5.9855123838771909e-02  5.9649471623331028e-02  5.9309025935712030e-02  5.8846440167494615e-02  5.8276557528245260e-02  5.7618565917992269e-02  5.6878634362599809e-02  5.6069890835857977e-02  5.5202091456864832e-02  5.4279581299678609e-02  5.3307468308870835e-02  5.2289111140103074e-02  5.1231764904336619e-02  5.0134427195092104e-02  4.8996315402543955e-02  4.7819649543225720e-02  4.6603111820969739e-02  4.5345606660902114e-02  4.4048182957685374e-02  4.2701105965260340e-02  4.1316858695479380e-02  3.9883567916238226e-02  3.8405039798403609e-02  3.6874553332233398e-02  3.5296359204340835e-02  3.3666924734562266e-02  3.1978031979256298e-02  3.0240319521693655e-02  2.8450034697894051e-02  2.6596250139812282e-02  2.4691694044200897e-02  2.2732990669900449e-02  2.0709280322422953e-02  1.8635154072637383e-02  1.6507620045423301e-02  1.4310450559143616e-02  1.2070704944948022e-02  9.7735421175674519e-03  7.4158127372279444e-03  5.0244161776351421e-03  2.5469319869010141e-03  0.0000000000000000e+00  0.0000000000000000e+00  0.0000000000000000e+00  0.0000000000000000e+00  0.0000000000000000e+00  0.0000000000000000e+00  0.0000000000000000e+00  0.0000000000000000e+00  0.0000000000000000e+00  2.6906117589901371e-03  5.2538252374757710e-03  7.7780892975832135e-03  1.0253211349216843e-02  1.2674997854025016e-02  1.5044308653365026e-02  1.7363120954838773e-02  1.9627878229449228e-02  2.1832361245366114e-02  2.3980301084572869e-02  2.6062493046769802e-02  2.8080332833480711e-02  3.0027014267171994e-02  3.1898956348640678e-02  3.3692524220622966e-02  3.5403181660092799e-02  3.7023764859456541e-02  3.8551261770640222e-02  3.9978414975365646e-02  4.1296248978652569e-02  4.2503009930922896e-02  4.3588209714119690e-02  4.4546913250088083e-02  4.5371815679331164e-02  4.6056151441609669e-02  4.6590904310726836e-02  4.6970968433322817e-02  4.7190368779528750e-02  4.7239672534935051e-02  4.7118731019793511e-02  4.6817040653120312e-02  4.6332248219386821e-02  4.5662094228113285e-02  4.4802879492389557e-02  4.3751118264584846e-02  4.2505305109362491e-02  4.1065174305564105e-02  3.9431670962701393e-02  3.7602821644022885e-02  3.5583213468853500e-02  3.3365060990167332e-02  3.0954050246852393e-02  2.8379930262732205e-02  2.5608109025997580e-02  2.2652844037837832e-02  1.9507201174270371e-02  1.6196819203653120e-02  1.2711167210237335e-02  9.0549363024261496e-03  5.2371267599982561e-03  1.2636486030778835e-03  -2.8556346907875002e-03  -7.1098577116464699e-03  -1.1487713027921471e-02  -1.5974608758893540e-02  -2.0565371569941791e-02  -2.5192986960790378e-02  -2.9863845394419858e-02  -3.4544903552554858e-02  -3.9180418919437084e-02  -4.3751241187867572e-02  -4.8185191234612922e-02  -5.2461697935352207e-02  -5.6510659406080695e-02  -6.0262048896354052e-02  -6.3670806824913176e-02  -6.6666203055627857e-02  -6.9184967157939911e-02  -7.1150375239228875e-02  -7.2490541873124884e-02  -7.3147750450179808e-02  -7.3000010543122648e-02  -7.2149677560029088e-02  -7.0533441034120542e-02  -6.8308782633794252e-02  -6.5190453670462181e-02  -6.1585849079863975e-02  -5.7370627563891004e-02  -5.2737072343197577e-02  -4.7697488267174210e-02  -4.2370266203118644e-02  -3.6757321867789364e-02  -3.0969949971169683e-02  -2.5016184560689669e-02  -1.8909352687864180e-02  -1.2711543809648854e-02  -6.4326799934801993e-03  -9.2455862429542516e-05  6.3005797195295121e-03  1.2724249354036763e-02  1.9171261889613177e-02  2.5632496138566992e-02  3.2103153508840902e-02  3.8574862688341184e-02  4.5045835920234714e-02  5.1509873344237178e-02  5.7964608054843020e-02  6.4409315951703891e-02  7.0840882396427940e-02  7.7257456060279783e-02  8.3658361708512693e-02  9.0043049380881715e-02  9.6409756177984918e-02  1.0275822367958261e-01  1.0908812344302282e-01  1.1539904033315003e-01  1.2169063105799406e-01  1.2796245503626047e-01  1.3421465434724927e-01  1.4044695430031343e-01  1.4665924526252594e-01  1.5285150592209579e-01  1.5902368387648150e-01  1.6517579757706652e-01  1.7130784470395943e-01  1.7741978924621307e-01  1.8351171035242100e-01  1.8958361495405973e-01  1.9563553732218053e-01  2.0166752408291694e-01  2.0767961504269442e-01  2.1367182019747871e-01  2.1367148935690414e-01  2.1367067339444637e-01  2.1366939003785310e-01  2.1366783744849846e-01  2.1366628264267876e-01  2.1366500377001407e-01  2.1366418294533124e-01  2.1366385533738147e-01  -1.0448629324594866e-01  -1.4251809929644782e-01  -9.8770483920008201e-02  -8.6356679827629165e-02  -7.6871486741849723e-02  -6.6922709840104455e-02  -5.6720583400865811e-02  -4.6336251225858646e-02  -3.5158713987620445e-02  -2.6058530811233174e-02  -1.6311372764752679e-02  -6.0971226510961813e-03  4.4005539451565439e-03  1.5362384951676534e-02  2.6593856125050785e-02  -1.0998528851037158e-01  -7.2234426152034389e-02  -9.0954192159064098e-02  -7.2755272297814214e-02  -4.9593767726228928e-02  -2.3674993489805750e-02  1.2446268703469347e-03  3.9099485491835236e-02  -1.1970715871265765e-01  2.3789190087197504e-02  5.2190277041189170e-02  4.1141847925122300e-02  6.6039314587104006e-02  5.2396439609421273e-02  -6.1381725529347377e-02  5.8145637095447573e-02  8.1369990311817547e-02  -3.6399687702351698e-02  5.9649154367789753e-02  -1.1053373411568808e-01  -7.0946892012356738e-02  9.6418652796664575e-02  5.8411664069125596e-02  -8.8255625634121437e-03  5.5528031977542969e-02  1.1369328433367047e-01  7.1647877604117029e-03  5.1696774253463890e-02  2.6642527518102210e-02  1.3145653600578869e-01  -6.3095523022021649e-02  4.7165247497732307e-02  3.4422404367184467e-02  -5.0285008687891763e-02  4.2026417766858302e-02  -3.3815995791187804e-02  4.1728590906321757e-02  1.5143086398651595e-01  1.6627702242122891e-01  4.5122974694497581e-02  -4.9732551137782653e-02  -2.2300846165935785e-02  3.6128201425733135e-02  1.8241088106579883e-02  3.1176940630761991e-02  -1.6185953250744723e-02  -9.1710758732701500e-02  4.7078932281193947e-02  9.4801173568632574e-03  4.6674513263027018e-02  2.5705727119852171e-02  1.8248848850772237e-01  2.8585028306129766e-02  4.3973076910057293e-02  1.9734126293131760e-02  4.8679361885639191e-02  1.3232249336142112e-02  4.0494252396304262e-02  7.3820090306783978e-02  3.4469520148010142e-02  1.0580081292380301e-01  2.8990962831808877e-02  1.2542339119501483e-01  1.4355326670301580e-01  2.2861563581433215e-02  1.6050814650513241e-02  1.7493650616475603e-01  2.0259668450485872e-03  2.0868208636336008e-01  -1.1446225966673590e-01  8.9173608158593549e-03  1.9260960316467959e-01  -1.2676044302902900e-01  -1.1322936563704780e-01  -6.9636067761960435e-02  -3.1802060727351288e-03  6.1189903559303704e-02  -9.8344090532897707e-02  8.6500218428169240e-02  1.9333787074284228e-01  1.4129108682934605e-01  -5.6131597629178944e-04  1.2314078151314643e-01  1.5618891682618205e-01  3.8464421947449895e-02  4.6480854660425730e-02  8.5638582647274628e-03  1.0527853312926477e-01  4.5612446025725478e-02  3.7705356791559293e-02  3.9159374378882783e-02  8.8659412911050339e-02  4.4655002710051038e-02  4.9511621770506199e-02  5.3709890414761569e-02  5.7117387571627105e-02  5.9286757864153168e-02  7.3368729491287310e-02  5.9327383348115666e-02  5.5892652845502530e-02  4.7376827975287111e-02  3.3208064001136510e-02  5.9071719181641211e-02  1.3071066402205343e-02  -1.1210842423437985e-02  -3.6888655285821657e-02  -6.1626423151087767e-02  2.0306669712701164e-03  -8.2261809782721157e-02  4.5570560606591003e-02  3.2818409262889564e-02  2.0826136467785811e-01  2.0476571837001165e-02  9.2910839763068534e-03  -1.7147382049698576e-03  -1.1707787834816363e-02  -2.1295916511024141e-02  -3.0681152362127949e-02  -4.1918444938266811e-02  -5.2583679713707046e-02  -6.2891314943414350e-02  -7.3075201335153994e-02  -8.2648631056059338e-02  -9.2824901291292325e-02  2.1066763191627388e-03  2.0879230998961945e-01  -1.1398295353885232e-01  2.0939871412498753e-01  2.1266927858047961e-03  3.9459398074310412e-03  2.0459768340733586e-01  -1.1381338985657173e-01  -1.1349504628732868e-01  -1.1275725769461468e-01  -1.1340744824188739e-01  -1.1266551728004297e-01  -1.1364636954687261e-01  -1.1278341127582597e-01  -1.1390009527593717e-01  -1.1287051655973622e-01  -1.1391704572379974e-01  -1.1266368557510066e-01  -1.1338091649568739e-01  -1.1196507211042905e-01  -1.1226568385734310e-01  -1.1073126208179805e-01  -1.1067378377615761e-01  -1.0903626661775159e-01  -1.0874359102300618e-01  -1.0691965921411171e-01  -1.1037592239656452e-01  -1.0803360046463768e-01  -1.0986629632721842e-01  -1.0667347110773336e-01  -1.0851572198370460e-01  -1.0716394054313566e-01  -1.0480282319736130e-01  -1.0431977840516860e-01  -1.0601974161750763e-01  -1.0496315039810372e-01  -1.0238478520931911e-01  -1.0159902655097257e-01  -9.8934971676742034e-02  -9.9645380621122562e-02  -9.5975074623406167e-02  -9.6416177647655879e-02  -9.2523454453673867e-02  -9.2812866397928628e-02  -8.8743226181515714e-02  -8.8726976053586121e-02  -8.4462547933384050e-02  -8.4238098171348946e-02  -7.9734205322082655e-02  -7.9330678958841244e-02  -7.4697746005207483e-02  -7.3996848029395906e-02  -6.9359264655357411e-02  -6.8357428638109119e-02  -6.3737789004889481e-02  -6.2396445812562089e-02  -5.7882724659402258e-02  -5.6176771477237361e-02  -5.1828275003445341e-02  -4.9780002765671905e-02  -4.5721633787511054e-02  -4.3231047399179129e-02  -3.9626036482438801e-02  -3.6622410430535747e-02  -3.3346900875146274e-02  -2.9980046140757898e-02  -2.6965984848413848e-02  -2.3331986076038449e-02  -2.0827776316629035e-02  -1.6780583638640722e-02  -1.4861147114627113e-02  -9.7296075020673695e-02  -1.0440779071810661e-02  -9.0990518665368374e-03  -4.3281149833992692e-03  -3.3631012083971215e-03  -1.1471454621497626e-01  1.5644414914471551e-03  2.0250212536381956e-03  7.1385630120825716e-03  6.8666835404120651e-03  1.2308175576055149e-02  1.1351630332149367e-02  1.7116329244801286e-02  1.5607720155441982e-02  2.1575516361257180e-02  1.9518637943967146e-02  2.5647726118976345e-02  -1.0082875957617851e-01  -1.0226118873067402e-01  -1.0749420680709151e-01  -1.0307022014998721e-01  2.2699754788485200e-02  2.9276967346116553e-02  2.6476676602506594e-02  3.2578280190588560e-02  2.9446599615849091e-02  3.5530228780698558e-02  -8.7487757477259023e-02  -1.0832185623313112e-01  -1.0306414648203660e-01  -9.7685942532365080e-02  -9.7201895303673083e-02  -1.0195211627325453e-01  -9.5727551015662507e-02  -9.9638191459046177e-02  -9.3396351465429212e-02  -9.6292067551607394e-02  -9.0407703090873079e-02  -9.1897506784407459e-02  -8.6911666214380123e-02  -8.8087521140240418e-02  -8.3273517977528647e-02  -8.1396012067392887e-02  -7.8312925841436509e-02  -7.9922068524851439e-02  -7.4951581140155876e-02  -7.5677507152550574e-02  -7.1400832470420728e-02  -7.1733301985413556e-02  -6.7861062854156981e-02  -6.7724138483598151e-02  -6.4346871161034561e-02  -6.4256628541143113e-02  -6.0724466312889129e-02  -6.0443287904885075e-02  -5.7045411587052300e-02  -5.7197044362438408e-02  -5.3464609059648040e-02  -5.3264761709969376e-02  -4.9714032603320378e-02  -4.9774019135285098e-02  -4.6280766688406881e-02  -4.6179910236803436e-02  -4.2790139187064653e-02  -4.2581453394836079e-02  -3.9268328864115479e-02  -7.3157295202985237e-02  -3.8967968013878078e-02  -3.5673050622915786e-02  -3.5913088806834824e-02  -3.2382336016520678e-02  -3.2024539904005486e-02  -2.8781129904900071e-02  -9.1834641513534696e-02  3.1922590595841099e-02  3.8065171047897542e-02  -2.8461783223647879e-02  -2.5237249412271866e-02  -3.2392368399672855e-02  -4.6193947675543683e-02  3.4293256829701524e-02  4.0323930298238213e-02  3.6658907781029967e-02  4.2313440929928878e-02  3.8550941674743565e-02  4.4021298687856023e-02  -2.5003389781299536e-02  -2.1692933538754438e-02  -2.2309268101624119e-02  -1.8388557287758275e-02  -1.7859283918289427e-02  -1.4529672129884597e-02  -1.4988389643280567e-02  -1.1221777487126350e-02  -1.0734866323152211e-02  -7.4713218164816899e-03  4.0368013656061727e-02  4.5487141429999101e-02  4.1788991701992288e-02  4.6716764804500717e-02  -6.9840645897345288e-02  -6.9966042416441032e-03  -3.6433311018746629e-03  4.3119728673212156e-02  4.7740200598075037e-02  -4.1112364999364610e-03  -2.8344263890715089e-04  1.9262885932912679e-04  3.5354006815738639e-03  4.4375056051383220e-02  4.8625090375324816e-02  4.5404106519265026e-02  4.9393132047193533e-02  -4.7419128543502415e-02  -1.0559510707055411e-01  -7.6002579363557796e-02  -9.2361535800064704e-02  4.6317295521911633e-02  4.9884760768463154e-02  4.7071853336353081e-02  5.0287437198194763e-02  4.7729981280405745e-02  5.0585841907133181e-02  3.9317009574569737e-03  7.3751408114629243e-03  6.9676600215898676e-03  1.0848704449565051e-02  1.1361185778811674e-02  1.4874280052682272e-02  1.4381095828932464e-02  1.8378721826739660e-02  1.8842399509996027e-02  2.2341835913577485e-02  -4.6081763565992112e-02  -6.7264948932511739e-02  4.8201075695875589e-02  5.0757345475248544e-02  4.8625465596944410e-02  5.0825266355219514e-02  -3.0427162513060952e-02  -1.1121465924061621e-01  2.2667888218037308e-02  2.6257490486228857e-02  2.5990184630411937e-02  2.9968641502083344e-02  3.0278599195099013e-02  3.3996144358616247e-02  3.3797283903492154e-02  3.7952159647016578e-02  3.8027272602062047e-02  4.1897782555250902e-02  -1.1200747084929935e-01  4.8866288786207246e-02  5.0781933483660398e-02  4.9062014001027957e-02  5.0680503606619187e-02  -8.0713541556471542e-03  -9.6114167671031231e-02  -1.1481792066038150e-01  -3.1554938572927703e-02  -9.9195078970689188e-02  -9.4878229702450134e-02  -9.3416928735188504e-02  4.9034812057417158e-02  5.0435504660227219e-02  4.8973187173858457e-02  5.0092412161286307e-02  4.8783182142196249e-02  4.9665334072922791e-02  -8.8602412421423180e-02  -8.7474323030631157e-02  4.1750254901507945e-02  4.5856885872714637e-02  4.5934120576698295e-02  4.9945378642388634e-02  4.9859655828707175e-02  5.4009135659193144e-02  5.4165701362114349e-02  5.8171327546406928e-02  4.8506169525980608e-02  4.9137212916861205e-02  -7.7820837954285765e-02  -1.0280238991851660e-02  -6.5855331859733532e-03  4.8137894065416936e-02  4.8540503036925454e-02  4.7526262960743935e-02  4.7806518358285609e-02  -3.3359616561395369e-02  5.8381118372050435e-02  6.2384967952895283e-02  6.2566075589050432e-02  6.6598362878968281e-02  5.7813735796360798e-03  -6.0216125410191404e-02  6.6516322348726800e-02  7.0732803818677970e-02  7.0810814291759658e-02  7.5028536595762724e-02  7.5100998688135731e-02  7.9331476741597282e-02  7.9204193111703666e-02  8.3687797987282750e-02  2.3392094731557976e-02  8.3443594430816712e-02  8.8013594282175173e-02  2.2833592428152860e-02  4.7009575834838349e-02  4.7043968595856960e-02  4.6277113638535816e-02  4.6159834292382469e-02  4.8725114002789970e-02  -5.8715737972071386e-03  4.5454665835550891e-02  7.1758134313520709e-03  5.1598248872369586e-02  4.0913770554730430e-02  1.9203785225329350e-02  3.0493002796902004e-02  8.8115045983511969e-02  9.2457686547539358e-02  9.2439030126080374e-02  9.6927358329985183e-02  5.2488108637625423e-02  3.4957925066047960e-02  5.2648046023337232e-02  -4.7320499856866503e-02  5.2963316756251336e-02  5.0372344860639663e-02  -2.0236514399957471e-02  4.5482562675219919e-02  4.5198260421442753e-02  4.4559333092471107e-02  4.4150968595352828e-02  4.3555797220848208e-02  4.3018980306358277e-02  -8.8058278348898150e-02  5.3124297089949583e-02  5.1339321194114516e-02  4.8828783599023477e-02  1.8037210388895698e-02  -6.4026225628794958e-04  -6.4065664188966143e-02  -6.6767265623837682e-02  -6.3572462347163031e-02  4.7014430714937369e-02  4.4914605923007000e-02  -8.3018301294794331e-02  -8.1916746751370298e-02  9.6709544628305333e-02  1.0116326424919103e-01  1.0151172267752682e-01  1.0582939207074167e-01  1.0621268728445757e-01  1.1058336188504561e-01  1.1010467321868946e-01  1.14905212297739