<?xml version="1.0"?>
<VTKFile type="UnstructuredGrid"  version="0.1"  >
<UnstructuredGrid>
<Piece  NumberOfPoints="2886" NumberOfCells="5412">
<Points>
<DataArray  type="Float64"  NumberOfComponents="3"  format="ascii">0 0.1 0  0.98 0.1 0  1 0.1 0  1 0 0  1.5 0 0  3 0 0  3 0.3 0  0 0.3 0  0.01975375321854102 0.1 0  0.03918897458218897 0.1 0  0.05831079002627837 0.1 0  0.07712425666319796 0.1 0  0.0956343475259058 0.1 0  0.1138459546796227 0.1 0  0.1317638870668193 0.1 0  0.1493928840275937 0.1 0  0.1667376092280033 0.1 0  0.1838026357802664 0.1 0  0.2005924801287244 0.1 0  0.2171115811543574 0.1 0  0.2333643037107681 0.1 0  0.2493549444060462 0.1 0  0.2650877293306821 0.1 0  0.2805668058011438 0.1 0  0.2957962848620976 0.1 0  0.3107801766802674 0.1 0  0.3255224447361181 0.1 0  0.3400269848175519 0.1 0  0.3542976327080778 0.1 0  0.3683381609158136 0.1 0  0.3821522744564845 0.1 0  0.3957436316838916 0.1 0  0.4091158196437086 0.1 0  0.4222723742184605 0.1 0  0.4352167733293057 0.1 0  0.4479524348643424 0.1 0  0.4604827295467524 0.1 0  0.4728109659990664 0.1 0  0.4849404035409129 0.1 0  0.4968742471455402 0.1 0  0.508615651843175 0.1 0  0.520167721130924 0.1 0  0.5315335063628542 0.1 0  0.5427160117228604 0.1 0  0.5537181940261912 0.1 0  0.564542961924507 0.1 0  0.575193173270606 0.1 0  0.5856716438765114 0.1 0  0.5959811458006617 0.1 0  0.6061243988680743 0.1 0  0.6161040893285659 0.1 0  0.6259228503970299 0.1 0  0.6355832809287655 0.1 0  0.6450879281079505 0.1 0  0.6544393102991295 0.1 0  0.663639896558931 0.1 0  0.6726921201956305 0.1 0  0.6815983691630338 0.1 0  0.6903610031396646 0.1 0  0.6989823343332418 0.1 0  0.7074646404270378 0.1 0  0.7158101645005117 0.1 0  0.7240211149852543 0.1 0  0.7320996585612525 0.1 0  0.7400479319727645 0.1 0  0.7478680336617921 0.1 0  0.755562036504958 0.1 0  0.7631319665092091 0.1 0  0.7705798279317605 0.1 0  0.777907588066146 0.1 0  0.7851171851013118 0.1 0  0.7922105226004981 0.1 0  0.7991894774550319 0.1 0  0.8060558928136696 0.1 0  0.812811583201334 0.1 0  0.8194583352091183 0.1 0  0.8259979035038147 0.1 0  0.8324320194413813 0.1 0  0.8387623808293405 0.1 0  0.8449906627004957 0.1 0  0.8511185094880469 0.1 0  0.8571475426008311 0.1 0  0.8630793533568246 0.1 0  0.8689155114558531 0.1 0  0.8746575581239063 0.1 0  0.8803070109173519 0.1 0  0.885865363938836 0.1 0  0.8913340851680313 0.1 0  0.8967146206523592 0.1 0  0.9020083930695622 0.1 0  0.9072167995950768 0.1 0  0.9123412183131177 0.1 0  0.9173830029719022 0.1 0  0.9223434865647732 0.1 0  0.9272239785872722 0.1 0  0.9320257720706087 0.1 0  0.9367501330378739 0.1 0  0.9413983102716995 0.1 0  0.9459715351562933 0.1 0  0.9504710127113115 0.1 0  0.9548979346500661 0.1 0  0.9592534708344373 0.1 0  0.9635387708980176 0.1 0  0.9677549682252325 0.1 0  0.971903177251235 0.1 0  0.9759844952956497 0.1 0  0.9840000000000086 0.1 0  0.987999999999974 0.1 0  0.9919999999999393 0.1 0  0.9959999999999913 0.1 0  1 0.09591793123533533 0  1 0.09133596463859224 0  1 0.08619288104391448 0  1 0.08041996484521211 0  1 0.07394008421771697 0  1 0.06666666567302955 0  1 0.05850252932209174 0  1 0.04933859630113544 0  1 0.03905242821848202 0  1 0.02750659386753798 0  1 0.01454683679239736 0  1.015625 0 0  1.03125 0 0  1.046875 0 0  1.0625 0 0  1.078125 0 0  1.09375 0 0  1.109375 0 0  1.125 0 0  1.140625 0 0  1.15625 0 0  1.171875 0 0  1.1875 0 0  1.203125 0 0  1.21875 0 0  1.234375 0 0  1.25 0 0  1.265625 0 0  1.28125 0 0  1.296875 0 0  1.3125 0 0  1.328125 0 0  1.34375 0 0  1.359375 0 0  1.375 0 0  1.390625 0 0  1.40625 0 0  1.421875 0 0  1.4375 0 0  1.453125 0 0  1.46875 0 0  1.484375 0 0  1.515920751924515 0 0  1.531989369316721 0 0  1.54820720925872 0 0  1.564575665560501 0 0  1.581096138674279 0 0  1.597770029901263 0 0  1.614598783332311 0 0  1.631583831055205 0 0  1.64872661129721 0 0  1.666028606716533 0 0  1.683491276608443 0 0  1.701116134125304 0 0  1.718904673324128 0 0  1.736858414799339 0 0  1.754978895814663 0 0  1.773267661782904 0 0  1.791726281103402 0 0  1.810356325314689 0 0  1.8291593848892 0 0  1.848137076690385 0 0  1.867291007717254 0 0  1.886622833871288 0 0  1.90613418642363 0 0  1.925826753299799 0 0  1.945702199101513 0 0  1.96576223584749 0 0  1.986008569283268 0 0  2.006442931928877 0 0  2.02706707547783 0 0  2.047882750887917 0 0  2.06889175187935 0 0  2.090095860038271 0 0  2.111496891648636 0 0  2.133096679109554 0 0  2.154897066851056 0 0  2.176899916687499 0 0  2.199107102752146 0 0  2.22152053937028 0 0  2.244142122958061 0 0  2.266973806444078 0 0  2.290017523268154 0 0  2.313275249499252 0 0  2.336748971745516 0 0  2.360440702338606 0 0  2.384352453384031 0 0  2.408486280477412 0 0  2.432844240041185 0 0  2.457428414757088 0 0  2.482240901796653 0 0  2.507283830121838 0 0  2.532559332080812 0 0  2.558069568787417 0 0  2.583816724966441 0 0  2.60980299606584 0 0  2.636030600971886 0 0  2.662501790984011 0 0  2.689218818279327 0 0  2.716183964547616 0 0  2.743399548861297 0 0  2.77086788244719 0 0  2.798591312896326 0 0  2.826572223178268 0 0  2.854812990138617 0 0  2.883316031690714 0 0  2.912083780657189 0 0  2.941118704633482 0 0  2.970423276998917 0 0  3 0.02999999999994495 0  3 0.05999999999987042 0  3 0.089999999999783 0  3 0.119999999999701 0  3 0.149999999999619 0  3 0.179999999999692 0  3 0.2099999999997737 0  3 0.2399999999998511 0  3 0.2699999999999185 0  2.970138294777171 0.3 0  2.940375666438236 0.3 0  2.910711782853056 0.3 0  2.881146331305122 0.3 0  2.851678975030285 0.3 0  2.822309388626621 0.3 0  2.793037250095074 0.3 0  2.76386223529133 0.3 0  2.734784017903872 0.3 0  2.705802289276642 0.3 0  2.676916713794697 0.3 0  2.648126987654635 0.3 0  2.619432780406184 0.3 0  2.590833779385199 0.3 0  2.562329669847737 0.3 0  2.533920134950189 0.3 0  2.505604855727852 0.3 0  2.477383539822502 0.3 0  2.449255847639465 0.3 0  2.421221492569094 0.3 0  2.393280152486815 0.3 0  2.36543151914496 0.3 0  2.337675285481809 0.3 0  2.310011142385583 0.3 0  2.282438797441587 0.3 0  2.254957931061538 0.3 0  2.227568248063605 0.3 0  2.200269436651085 0.3 0  2.173061204949961 0.3 0  2.145943251515011 0.3 0  2.118915272469994 0.3 0  2.091976978084957 0.3 0  2.065128060700849 0.3 0  2.038368218849433 0.3 0  2.01169717777258 0.3 0  1.985114624111908 0.3 0  1.958620267850966 0.3 0  1.93221382054972 0.3 0  1.905894991850698 0.3 0  1.879663489459713 0.3 0  1.853519019126419 0.3 0  1.827461291053897 0.3 0  1.801490031354372 0.3 0  1.775604937580312 0.3 0  1.74980572560258 0.3 0  1.724092118631866 0.3 0  1.698463829173586 0.3 0  1.672920575782554 0.3 0  1.647462076974085 0.3 0  1.622088043536933 0.3 0  1.5967981978949 0.3 0  1.571592267767068 0.3 0  1.546469970305736 0.3 0  1.521431023814044 0.3 0  1.496475156230927 0.3 0  1.471602093687753 0.3 0  1.446811560490646 0.3 0  1.422103279101731 0.3 0  1.397476971708191 0.3 0  1.37293238939876 0.3 0  1.348469231419202 0.3 0  1.324087248732772 0.3 0  1.299786165921677 0.3 0  1.275565710847046 0.3 0  1.251425617644257 0.3 0  1.227365618676339 0.3 0  1.203385446174014 0.3 0  1.179484853067473 0.3 0  1.155663548773374 0.3 0  1.131921292279077 0.3 0  1.108257802159295 0.3 0  1.084672829009693 0.3 0  1.061166115303374 0.3 0  1.037737392995421 0.3 0  1.01438640299116 0.3 0  0.991112899770314 0.3 0  0.9679166155523955 0.3 0  0.944797284182564 0.3 0  0.921754678526042 0.3 0  0.8987885143602501 0.3 0  0.8758985548820624 0.3 0  0.8530845484099929 0.3 0  0.8303462351786988 0.3 0  0.8076833651172373 0.3 0  0.7850956864865304 0.3 0  0.7625829601354557 0.3 0  0.7401449314598274 0.3 0  0.717781337993959 0.3 0  0.6954919649675473 0.3 0  0.6732765357561226 0.3 0  0.6511348120768439 0.3 0  0.6290665642016573 0.3 0  0.6070715355430467 0.3 0  0.5851494825775325 0.3 0  0.5633001690203812 0.3 0  0.5415233562273221 0.3 0  0.5198187909431873 0.3 0  0.4981862401387795 0.3 0  0.4766254686134248 0.3 0  0.4551362360485234 0.3 0  0.4337182975262159 0.3 0  0.4123714223228037 0.3 0  0.3910953802377493 0.3 0  0.3698899313205595 0.3 0  0.3487548463710963 0.3 0  0.3276898864081783 0.3 0  0.3066948129116018 0.3 0  0.2857694003037476 0.3 0  0.2649134227095047 0.3 0  0.2441266417321288 0.3 0  0.2234088223399122 0.3 0  0.2027597568977288 0.3 0  0.1821792020676698 0.3 0  0.1616669305402443 0.3 0  0.1412227158799362 0.3 0  0.12084633013886 0.3 0  0.1005375673448281 0.3 0  0.08029618164595353 0.3 0  0.06012194778526769 0.3 0  0.04001466495039718 0.3 0  0.01997408913631205 0.3 0  0 0.2800000000000553 0  0 0.2600000000001105 0  0 0.2400000000001658 0  0 0.2200000000002211 0  0 0.2000000000002764 0  0 0.1800000000002244 0  0 0.1600000000001691 0  0 0.140000000000115 0  0 0.1200000000000564 0  1.13346801534201 0.01255848438672509 0  1.003577645172735 0.09351054173913405 0  0.9777559943702486 0.1034978156913738 0  0.9524533750752109 0.1040889939962738 0  0.9296242411226409 0.1041520033606139 0  0.9046110503652111 0.104409422380137 0  0.8777709649694228 0.1053360318797398 0  0.8483859145648608 0.1061007868330701 0  0.8162363822948977 0.1052777104363292 0  0.7893110024210437 0.1060761643971561 0  0.7587949382612539 0.1067265405088633 0  0.7280603867732535 0.1069398153264939 0  0.6947001989413015 0.1075609887579097 0  0.6590363283767549 0.1076715322596598 0  0.6210028614493155 0.1072970410408442 0  1.1953125 0.01353164693413185 0  1.258193991486058 0.01269648635163345 0  1.3201967268638 0.01407907077719561 0  1.383538555392096 0.01434101079053473 0  1.445312500000001 0.01303671693628424 0  1.508925448095738 0.01398525724792267 0  0.9939176689634008 0.1034638089837981 0  1.120967497222226 0.2796788492172345 0  1.572835902117391 0.01424132418857359 0  1.637573277451887 0.01212536916586023 0  1.709730776795181 0.01466855431023635 0  1.005631976950563 0.07074019818158772 0  1.784944696816299 0.01454708406461822 0  0.5805605730631225 0.1101465090472147 0  1.855621181165637 0.01550931272897607 0  0.5366111276616774 0.1096761308243709 0  1.935200147913231 0.01760344159641829 0  1.214922267975168 0.2799787705802257 0  1.31178773425331 0.2792
[...]
<PointData  Scalars="pressure"> 
<DataArray  type="Float64"  Name="pressure"  format="ascii">1.5831303892475621e-01  -1.6537424763190040e-01  -2.1543193445463155e-01  -1.6113491002068814e-01  -3.9887854279095962e-02  0.0000000000000000e+00  0.0000000000000000e+00  1.5832034829894945e-01  1.5238691679131838e-01  1.4655628288823441e-01  1.4081957004669801e-01  1.3517525349245738e-01  1.2962181948874871e-01  1.2415778877418274e-01  1.1878172678850091e-01  1.1349216256866779e-01  1.0828770060591071e-01  1.0316695221825210e-01  9.8128512003302387e-02  9.3171030240408473e-02  8.8293192514814808e-02  8.3493635617046119e-02  7.8771061499387132e-02  7.4124255528889210e-02  6.9551821235575184e-02  6.5052565872150470e-02  6.0625247394681697e-02  5.6268565311942034e-02  5.1981355923718151e-02  4.7762489145366994e-02  4.3610615079774963e-02  3.9524653379860275e-02  3.5503316148773126e-02  3.1545506132490186e-02  2.7650177787813531e-02  2.3816061915820374e-02  2.0041978339479107e-02  1.6326879628888898e-02  1.2669635170570728e-02  9.0690515847393644e-03  5.5241368835395556e-03  2.0336555567129007e-03  -1.4034142303681124e-03  -4.7882489339790722e-03  -8.1219215022824715e-03  -1.1405117030311808e-02  -1.4639655917268162e-02  -1.7826153542340684e-02  -2.0965731143142475e-02  -2.4059668097115731e-02  -2.7108987071544150e-02  -3.0114138795414934e-02  -3.3077182045100677e-02  -3.5998605363665524e-02  -3.8879538252389358e-02  -4.1721123426060186e-02  -4.4524356518191248e-02  -4.7290294855838473e-02  -5.0020131536589414e-02  -5.2714806107559187e-02  -5.5375294577711086e-02  -5.8002559994853570e-02  -6.0598195658577658e-02  -6.3162588154098212e-02  -6.5697022331647634e-02  -6.8202158605490323e-02  -7.0680056460046617e-02  -7.3131131227493068e-02  -7.5555638660950969e-02  -7.7955343900063229e-02  -8.0331843320146520e-02  -8.2684830062508291e-02  -8.5016410945350174e-02  -8.7327309327087155e-02  -8.9617825382424604e-02  -9.1889572379083351e-02  -9.4143463621227080e-02  -9.6380445593904532e-02  -9.8602285796965630e-02  -1.0080909852513058e-01  -1.0300134192184920e-01  -1.0517972890702877e-01  -1.0734774607282968e-01  -1.0950448955606483e-01  -1.1165066915674596e-01  -1.1378820162898046e-01  -1.1591750694078487e-01  -1.1803956758091193e-01  -1.2015553565487506e-01  -1.2226733363228616e-01  -1.2437545447530518e-01  -1.2648016165918843e-01  -1.2858388444264024e-01  -1.3068756047963023e-01  -1.3279236559734878e-01  -1.3489973600711824e-01  -1.3701095098372898e-01  -1.3912772453481922e-01  -1.4125184407013733e-01  -1.4338531333521071e-01  -1.4553029569500256e-01  -1.4768835898299518e-01  -1.4986168026740568e-01  -1.5204043167910200e-01  -1.5442077425956063e-01  -1.5578373962069864e-01  -1.5952926581940302e-01  -1.5753910446605446e-01  -1.6242404992756157e-01  -1.5956253464787645e-01  -2.0295344160956233e-01  -1.8155811045297504e-01  -1.7498049523315848e-01  -1.7019035800541291e-01  -1.6695488111828977e-01  -1.6452599131598161e-01  -1.6270622446911626e-01  -1.6137268302636301e-01  -1.6057186160366790e-01  -1.6037571397709094e-01  -1.6078240252316961e-01  -1.6157620349203150e-01  -1.6195144606658407e-01  -1.6174551242509255e-01  -1.6107366688766397e-01  -1.6002642866735176e-01  -1.5864731707387456e-01  -1.5692102695182067e-01  -1.5483452314436830e-01  -1.5241672380779403e-01  -1.4968483303944638e-01  -1.4664263508884723e-01  -1.4330372592136534e-01  -1.3967906909615213e-01  -1.3578061182045773e-01  -1.3162873806420930e-01  -1.2723635536240066e-01  -1.2261587371480966e-01  -1.1778571822670758e-01  -1.1276491021320696e-01  -1.0756417199332997e-01  -1.0221376442160932e-01  -9.6732247760065254e-02  -9.1135738534393398e-02  -8.5455533387622226e-02  -7.9710278270729476e-02  -7.3930145401076550e-02  -6.8137709522632331e-02  -6.2356116516389025e-02  -5.6617564192534539e-02  -5.0943318880961083e-02  -4.5359805945125529e-02  -3.4451947650670056e-02  -2.9137865419732338e-02  -2.3955262777517122e-02  -1.8938735206137564e-02  -1.4115338763592658e-02  -9.4872807199296531e-03  -5.0813424150265114e-03  -9.0278317712810742e-04  2.9993200551590091e-03  6.6498290638230262e-03  1.0048697124250973e-02  1.3175013253020581e-02  1.6031490358466037e-02  1.8625729305491744e-02  2.0962243793313257e-02  2.3046653973534528e-02  2.4895015431971940e-02  2.6508419948902774e-02  2.7901717870107725e-02  2.9106099214423638e-02  3.0110510208666667e-02  3.0945613607897368e-02  3.1625363823019559e-02  3.2158065167680057e-02  3.2565475134657025e-02  3.2852223356651195e-02  3.3049306258337852e-02  3.3147639498477002e-02  3.3168083049157963e-02  3.3115545235938675e-02  3.2997776139993946e-02  3.2824065110434023e-02  3.2603454642887546e-02  3.2339876224980094e-02  3.2033991130644604e-02  3.1692684179947465e-02  3.1316492483507173e-02  3.0907886563348485e-02  3.0467741930708659e-02  2.9996264068828431e-02  2.9493616032206363e-02  2.8959514204095149e-02  2.8392552908767493e-02  2.7792824423928501e-02  2.7157698365406577e-02  2.6485724951604832e-02  2.5777830608788969e-02  2.5029154196051281e-02  2.4237637232617012e-02  2.3407570644924533e-02  2.2529364272822167e-02  2.1610053042878153e-02  2.0639123612434789e-02  1.9625389807264249e-02  1.8561082259471721e-02  1.7442370950076651e-02  1.6279810183053238e-02  1.5059187152582367e-02  1.3791893266737645e-02  1.2471852224446359e-02  1.1098079475464488e-02  9.6705703976876223e-03  8.1915440878674896e-03  6.6641557802039602e-03  5.0790649634018187e-03  3.4539906926149290e-03  1.7726201862154614e-03  0.0000000000000000e+00  0.0000000000000000e+00  0.0000000000000000e+00  0.0000000000000000e+00  0.0000000000000000e+00  0.0000000000000000e+00  0.0000000000000000e+00  0.0000000000000000e+00  0.0000000000000000e+00  1.9294403088026500e-03  3.7307245495089973e-03  5.5043498612434068e-03  7.2249509606600358e-03  8.8963012207206472e-03  1.0517171357606188e-02  1.2086663103298523e-02  1.3603069905698933e-02  1.5063548048369015e-02  1.6465907178467895e-02  1.7806145918420540e-02  1.9081794210453022e-02  2.0287782380713656e-02  2.1421112208424745e-02  2.2476921936853939e-02  2.3448655961381525e-02  2.4335868973810067e-02  2.5127444998272918e-02  2.5818695508772870e-02  2.6403439910682589e-02  2.6874809290230676e-02  2.7226091258530552e-02  2.7451626335897504e-02  2.7540704548400786e-02  2.7491381910447612e-02  2.7292242919512658e-02  2.6940891519725348e-02  2.6425998541338737e-02  2.5742455945502531e-02  2.4887582552677433e-02  2.3850755488289611e-02  2.2626513241343165e-02  2.1229667608580988e-02  1.9645987854991331e-02  1.7849648099941606e-02  1.5881109015699339e-02  1.3716568353624637e-02  1.1357562052973268e-02  8.8053256537145245e-03  6.0676502588145158e-03  3.1357559167866180e-03  2.3303316593717388e-05  -3.2778045288551728e-03  -6.7570131912108302e-03  -1.0425274665261674e-02  -1.4267422105752688e-02  -1.8284182254967068e-02  -2.2467182501822558e-02  -2.6819132269229929e-02  -3.1326527825978584e-02  -3.5986770332299307e-02  -4.0788464042712649e-02  -4.5718669432282234e-02  -5.0768708046855390e-02  -5.5922913194256060e-02  -6.1158278502284107e-02  -6.6417276646884918e-02  -7.1743309424890545e-02  -7.7054053579878989e-02  -8.2290662249480659e-02  -8.7456003941218899e-02  -9.2479564412582399e-02  -9.7341637796856728e-02  -1.0193705499757207e-01  -1.0625939899122919e-01  -1.1019941633656950e-01  -1.1374510480052390e-01  -1.1678637033430316e-01  -1.1932709980575158e-01  -1.2123534433708059e-01  -1.2252588624489073e-01  -1.2312690724340426e-01  -1.2290959321712885e-01  -1.2204402376411830e-01  -1.2039485858234172e-01  -1.1796903306798466e-01  -1.1488322045045529e-01  -1.1116047943080729e-01  -1.0692666160829098e-01  -1.0225141940793910e-01  -9.7134611633912349e-02  -9.1713506661083452e-02  -8.6027837065585464e-02  -8.0171224870187213e-02  -7.4148281719231740e-02  -6.7987429862629026e-02  -6.1741684558861004e-02  -5.5424375905119630e-02  -4.9046758000283797e-02  -4.2632761992148292e-02  -3.6187590382156985e-02  -2.9729809662363358e-02  -2.3262404761609675e-02  -1.6787999140458310e-02  -1.0318180639920640e-02  -3.8542150517030219e-03  2.6026598502157123e-03  9.0489198549432541e-03  1.5481429112131849e-02  2.1899007622650887e-02  2.8301129747467197e-02  3.4686243362319492e-02  4.1054156566237593e-02  4.7403239161113810e-02  5.3733848981130511e-02  6.0045251278426907e-02  6.6337170988861716e-02  7.2609510222383475e-02  7.8861956774226291e-02  8.5094458854604815e-02  9.1306980689370765e-02  9.7499424155651132e-02  1.0367176185869550e-01  1.0982399344123933e-01  1.1595612967380642e-01  1.2206814828377510e-01  1.2816012016674080e-01  1.3423206557832365e-01  1.4028401304479016e-01  1.4631601685109519e-01  1.5232811155575476e-01  1.5832032006618110e-01  1.5832001627905276e-01  1.5831927432734250e-01  1.5831810961950957e-01  1.5831669486818478e-01  1.5831527865698500e-01  1.5831411151483391e-01  1.5831336461937071e-01  1.5831306192397532e-01  -1.5326134978607139e-01  -1.8602376901696316e-01  -1.5815702819127891e-01  -1.4449137467561496e-01  -1.3394891631576752e-01  -1.2339948035971926e-01  -1.1289774496921642e-01  -1.0207944719425842e-01  -9.0824360813385172e-02  -8.1753408425662588e-02  -7.1750309292445510e-02  -6.1898182783557527e-02  -5.1390255137434157e-02  -4.0309013865033133e-02  -2.8614554721094379e-02  -1.4134885884352288e-01  -1.2480131139441958e-01  -1.0503015107534856e-01  -8.2522924985667184e-02  -5.9760498929347608e-02  -3.7201515504497559e-02  -1.7080083365727408e-01  -1.2129463581818101e-01  -1.6920195480915348e-02  1.0821085921440806e-04  1.4189452903581451e-02  -1.6642974523529161e-01  2.3900375813450732e-02  -1.6277414373981138e-02  2.9230869383102938e-02  -2.9437566193023959e-03  3.2141874958097089e-02  -1.1140655212170680e-01  -9.4275838649479166e-02  3.3036234266656202e-02  -7.3963802269981824e-02  1.0869567102505910e-02  -4.7842517767934960e-02  3.2630201563669144e-02  2.5731640263952523e-02  -1.5885120602264974e-01  3.1436553978787446e-02  -2.4414859784414756e-02  -1.2201302324752120e-01  4.1135430605565272e-02  2.9697039743288668e-02  -1.5738545833437337e-03  5.8633827113147553e-02  7.2978310169425067e-03  2.7412090592894695e-02  1.4894120509757580e-02  7.5925257917573999e-02  -1.1612797791869359e-01  2.4649100714528329e-02  2.0422957658461624e-02  -1.0447663287384780e-01  2.4372139345720530e-02  2.1106191949243021e-02  -8.8864503776963366e-02  9.6125650568430171e-02  1.1014283696311440e-01  -1.2240231841915233e-02  1.7972126869267260e-02  1.4252384315679436e-02  2.6609452086000619e-02  -7.1272768603940259e-02  2.7388932866780572e-02  -1.5093030239837529e-01  -4.6280961048330557e-02  2.6538238113948152e-02  1.2759468343450880e-01  -2.6534283840827736e-02  1.0356600904314830e-02  2.3824679423890216e-02  -6.9654159984476952e-03  1.8857360566097579e-02  2.0786002150761915e-02  5.0569188234832904e-02  1.7077387090524088e-02  6.9529635860297229e-02  8.8306718512966634e-02  1.2800909151497118e-02  1.1990646755041251e-01  1.6158550867328340e-03  1.5273674643501139e-01  -1.6157086260940920e-01  8.1574394807998711e-03  5.7497288005036147e-03  1.3770903391462055e-01  -1.7298394370875717e-01  -1.6091549683643114e-01  -1.1744791473466153e-01  -5.8490116933931302e-02  5.3320946653674737e-03  3.1161566109384163e-02  1.3804894760528380e-01  -3.8505827604967825e-02  -6.3069851426797982e-02  -8.4244060971255974e-02  -1.0343515424709827e-01  8.6187891488428522e-02  2.7290676074486382e-02  6.7014375000843007e-02  1.0054815461983257e-01  2.5385131466030431e-02  2.2963212355624801e-02  4.9311901867915772e-02  2.6025164411717823e-02  2.8635635753847991e-02  3.3773615472829283e-02  3.0631434920453275e-02  3.2113955895050277e-02  3.2964660985623166e-02  3.2814589095989465e-02  -2.6917244919786289e-02  1.8182635364157176e-02  3.0991997234713180e-02  2.6901332641836109e-02  3.7955988555679714e-03  1.9662755601739725e-02  7.9685660728556450e-03  -7.5287710186404955e-03  1.3462795475690579e-03  -1.0127764965093516e-02  -2.2065695916342280e-02  1.5307651754932239e-01  -3.4228658780809815e-02  -4.5919233746499463e-02  -5.6705034616567181e-02  -6.7063439919187090e-02  -7.6831588196521319e-02  -8.6098702922409981e-02  -1.4777860181803093e-01  -9.7536693572412222e-02  -1.0848053939771136e-01  -1.1917178228123686e-01  -1.3364192415311985e-01  -1.2979728400970680e-01  -9.4272910684837188e-02  -1.1481541706369466e-01  -7.2118250469599604e-02  -4.8468650361033656e-02  -1.4030601164166800e-01  -1.5998693148714260e-01  1.6955218862642254e-03  1.5257997193263079e-01  4.5461400200955794e-03  -1.6134675382732749e-01  1.5332842139925362e-01  1.3717702878570989e-03  1.4922433257095105e-01  -1.6131419809737815e-01  -1.6097512377455903e-01  -1.6051429869235917e-01  -1.6101638005016014e-01  -1.6053800093409271e-01  -1.6136875925364139e-01  -1.6070899571190261e-01  -1.6182447528262459e-01  -1.6099399032530420e-01  -1.6214696237804177e-01  -1.6119767753628611e-01  -1.6207331945645131e-01  -1.6092854439019180e-01  -1.6144036105783310e-01  -1.6015785981313185e-01  -1.6035309986875615e-01  -1.5889436225552064e-01  -1.5887038044955307e-01  -1.5724062281007511e-01  -1.5682021905543819e-01  -1.5488474093008153e-01  -1.5850655029625529e-01  -1.5540865364983336e-01  -1.5266248017764655e-01  -1.5577319598453310e-01  -1.5773474669144755e-01  -1.5295781550787099e-01  -1.5006764402967682e-01  -1.5028712511184936e-01  -1.4702919400269046e-01  -1.4713308021642821e-01  -1.4355182965092667e-01  -1.4357466777503178e-01  -1.3991982740753756e-01  -1.3960895864855666e-01  -1.3521943455642707e-01  -1.3501739582162653e-01  -1.3080695461604333e-01  -1.3018100365909799e-01  -1.2580929900246068e-01  -1.2494380152229358e-01  -1.2048428601010294e-01  -1.1939243618930151e-01  -1.1489411153914209e-01  -1.1353566093441307e-01  -1.0906945553487520e-01  -1.0740805027417194e-01  -1.0302606079483567e-01  -1.0107514609053138e-01  -9.6844644672465452e-02  -9.4551927100905708e-02  -9.0563995682962431e-02  -8.7810592377848343e-02  -1.5391531980582254e-01  -1.5569795193757574e-01  -8.4201803672693032e-02  -8.1020822925267313e-02  -7.7840555415589083e-02  -7.4662121572705631e-02  -7.1576149238106249e-02  -6.8043942471157498e-02  -6.5414770086573579e-02  -6.1553480395920061e-02  -1.4894695230724689e-01  -5.9469778837015833e-02  -5.5182883964015932e-02  -5.3451387316492682e-02  -4.8951283352860378e-02  -4.7836623852475432e-02  -4.3005158925572655e-02  -1.5107537502073612e-01  -1.5300238897123805e-01  -1.6257404943371465e-01  -4.2376327294492110e-02  -3.7261328593278652e-02  -3.7197298895571371e-02  -3.1806623175736765e-02  -3.2280085495780812e-02  -2.6671818183360046e-02  -1.5903416672432519e-01  -2.7642646456532052e-02  -2.1824720731498225e-02  -1.3920197668348205e-01  -2.3270114932423501e-02  -1.7311556899417033e-02  -1.9192931212968837e-02  -1.3123867236329976e-02  -1.5327323053261734e-02  -9.2515043946815988e-03  -1.5952248050737020e-01  -1.2569574244700210e-01  -1.1798456616341536e-02  -5.6945522303021769e-03  -1.4729020091844539e-01  -1.4849281712248602e-01  -1.4571639314178195e-01  -1.0974371073473457e-01  -8.4613192999757666e-03  -2.2911319737315356e-03  -5.4684981833801431e-03  7.5752213382180081e-04  -2.6256392934045874e-03  3.3910174297084798e-03  -3.8005799301360686e-02  5.8873647466686275e-04  -2.1108661143093812e-02  -5.7384530055056608e-02  6.4457837231930563e-06  5.8024779284024455e-03  9.1910108001724330e-03  1.1442208146843467e-02  8.0576342677629101e-03  1.3469851161124532e-02  1.0184504922663547e-02  1.5360518954322720e-02  1.2101977643764807e-02  1.7001877338114809e-02  1.3857079228072174e-02  1.8514936317843133e-02  1.5509702409165748e-02  1.9841959179954780e-02  1.6940536672739356e-02  2.1054582579812815e-02  1.8373132677115666e-02  2.2262475883016389e-02  1.9651264475684899e-02  2.3251004676153677e-02  2.0856572792964559e-02  2.4108522430360959e-02  2.1818289329939723e-02  2.4889693100189701e-02  -7.7556545079388362e-02  -9.2632128156370161e-02  2.2804168939796286e-02  2.5547405384023496e-02  2.3739203509372944e-02  2.6174364224004404e-02  -1.4638528595338798e-01  -1.1137368735041819e-01  2.4571098778038449e-02  2.6690006125379206e-02  -1.2863399864177466e-01  -7.5222610366495468e-02  -1.4259300207366185e-01  -1.4336868940312403e-01  -1.5003010874583861e-01  -1.4377412165601666e-01  -1.4933576809408794e-01  -1.4345124406225210e-01  -1.4930604277297929e-01  -1.4257885689258645e-01  -1.4665867190033158e-01  -1.4069452688981282e-01  -1.4486735738067105e-01  -1.3841252097153103e-01  -1.4104863392207370e-01  -1.3547310616573005e-01  -1.3741399236271701e-01  -1.3234377821908633e-01  -1.3365283837579264e-01  -1.2894258840848860e-01  -1.2982858614037515e-01  -1.2545354133810560e-01  -1.2596306349668052e-01  -1.2186325676421728e-01  -1.2211046031692663e-01  -1.1824451096296824e-01  -1.1826661694520442e-01  -1.1464747185820282e-01  -1.1411440970083390e-01  -1.1076651508259626e-01  -1.1094411423808093e-01  -1.0733272836600653e-01  -1.0707820857241318e-01  -1.0372209484044051e-01  -1.0348329635188847e-01  -1.0015514911984640e-01  -9.9655924443488642e-02  -9.6526467788676476e-02  -1.3020264267158302e-01  -1.0704390958911258e-01  -1.2091901566825558e-01  -9.5961583793391175e-02  -9.2819426406508587e-02  -9.3147253214484763e-02  -8.9613061230760793e-02  -8.9071924699363009e-02  -8.5997657728632770e-02  -8.5279624025158526e-02  -8.2326803448240754e-02  -8.1502817530458432e-02  -7.8598709212585410e-02  -8.5803493704253081e-02  -1.5446349787638428e-01  -1.4643952522318129e-01  -7.7787134569216168e-02  -7.4814021342177892e-02  -7.5584209008370443e-02  -7.1805204308540982e-02  -7.1005557755914772e-02  -6.8045265315562181e-02  -6.7140578884095983e-02  -6.4260065412128226e-02  -1.3834135070863637e-01  -6.8582890211304412e-02  -6.3299022397140442e-02  -6.0489205267122051e-02  -1.2998011271999582e-01  -5.9571672695047262e-02  -5.6662676670133201e-02  -5.7853459298617231e-02  -5.3705907086102185e-02  -5.2727182584806499e-02  -4.9658442889034420e-02  -5.0596095473990375e-02  -4.6550387202399679e-02  -4.5628759956174852e-02  -4.2513467101724441e-02  -4.1583713815999360e-02  -3.8383369047762038e-02  -3.9338530487699995e-02  -3.5211524395134711e-02  -3.4227333032992906e-02  -3.1080187628184337e-02  -3.0135298706660419e-02  -2.6966792138965561e-02  -1.3834260705503967e-01  -1.0675770456869151e-01  -1.2175171850593063e-01  -2.6116266257283142e-02  -2.2885665244081456e-02  -2.3748586412101244e-02  -1.9513944503618017e-02  -1.8656643409402977e-02  -1.5285395402535124e-02  -2.0375705124187547e-02  2.5230891887518495e-02  2.7119414170625550e-02  2.5831471913626839e-02  2.7481650853963674e-02  2.6366900536877531e-02  2.7772849955221311e-02  -8.8384633429033257e-02  -4.7441521004922826e-02  -1.6239410594017639e-01  -1.4396531410226109e-02  -1.1092333137270103e-02  -9.8974180060279776e-02  2.2928459586014638e-02  2.6975873660925995e-02  1.4298587619893527e-02  2.6811103046472710e-02  2.7983723425129881e-02  2.9033596550828787e-02  2.9023764184550160e-02  2.8120415837281358e-02  2.8961903644632209e-02  2.8189912902423668e-02  2.8841442552358095e-02  2.8177209815144801e-02  2.8654626725567921e-02  2.8092272326931553e-02  2.8409803435235213e-02  2.7923708397415148e-02  2.8093617470873491e-02  2.7679164751442338e-02  2.7718072255039545e-02  2.7361743288806958e-02  2.7281166911137252e-02  2.6974839017344043e-02  2.6785072262821990e-02  2.6507738209917562e-02  2.6214717698056601e-02  2.5959087874341192e-02  2.5592904529180924e-02  2.5333647633891898e-02  2.4884368420236162e-02  2.4647868769583869e-02  2.4135487453504609e-02  2.3867469259809863e-02  2.3300934403892967e-02  2.3032862483734387e-02  2.2418911519820381e-02  2.8702565079470686e-02  -3.6233980526911437e-02  -7.0136404166697863e-02  -1.0081421982894962e-02  -6.7899677899960365e-03  -7.7917877418995120e-03  -3.3380025313618387e-03  -4.3841751351778044e-03  1.7305831732246461e-04  1.0989862492293873e-03  4.6297874178887182e-03  5.6754251521958128e-03  9.1786881011742764e-03  8.2304585143892495e-03  1.2767500439378266e-02  1.3573605220917379e-02  1.7269299407101830e-02  1.8061402622139264e-02 