<?xml version="1.0"?>
<VTKFile type="UnstructuredGrid"  version="0.1"  >
<UnstructuredGrid>
<Piece  NumberOfPoints="2886" NumberOfCells="5412">
<Points>
<DataArray  type="Float64"  NumberOfComponents="3"  format="ascii">0 0.1 0  0.98 0.1 0  1 0.1 0  1 0 0  1.5 0 0  3 0 0  3 0.3 0  0 0.3 0  0.01975375321854102 0.1 0  0.03918897458218897 0.1 0  0.05831079002627837 0.1 0  0.07712425666319796 0.1 0  0.0956343475259058 0.1 0  0.1138459546796227 0.1 0  0.1317638870668193 0.1 0  0.1493928840275937 0.1 0  0.1667376092280033 0.1 0  0.1838026357802664 0.1 0  0.2005924801287244 0.1 0  0.2171115811543574 0.1 0  0.2333643037107681 0.1 0  0.2493549444060462 0.1 0  0.2650877293306821 0.1 0  0.2805668058011438 0.1 0  0.2957962848620976 0.1 0  0.3107801766802674 0.1 0  0.3255224447361181 0.1 0  0.3400269848175519 0.1 0  0.3542976327080778 0.1 0  0.3683381609158136 0.1 0  0.3821522744564845 0.1 0  0.3957436316838916 0.1 0  0.4091158196437086 0.1 0  0.4222723742184605 0.1 0  0.4352167733293057 0.1 0  0.4479524348643424 0.1 0  0.4604827295467524 0.1 0  0.4728109659990664 0.1 0  0.4849404035409129 0.1 0  0.4968742471455402 0.1 0  0.508615651843175 0.1 0  0.520167721130924 0.1 0  0.5315335063628542 0.1 0  0.5427160117228604 0.1 0  0.5537181940261912 0.1 0  0.564542961924507 0.1 0  0.575193173270606 0.1 0  0.5856716438765114 0.1 0  0.5959811458006617 0.1 0  0.6061243988680743 0.1 0  0.6161040893285659 0.1 0  0.6259228503970299 0.1 0  0.6355832809287655 0.1 0  0.6450879281079505 0.1 0  0.6544393102991295 0.1 0  0.663639896558931 0.1 0  0.6726921201956305 0.1 0  0.6815983691630338 0.1 0  0.6903610031396646 0.1 0  0.6989823343332418 0.1 0  0.7074646404270378 0.1 0  0.7158101645005117 0.1 0  0.7240211149852543 0.1 0  0.7320996585612525 0.1 0  0.7400479319727645 0.1 0  0.7478680336617921 0.1 0  0.755562036504958 0.1 0  0.7631319665092091 0.1 0  0.7705798279317605 0.1 0  0.777907588066146 0.1 0  0.7851171851013118 0.1 0  0.7922105226004981 0.1 0  0.7991894774550319 0.1 0  0.8060558928136696 0.1 0  0.812811583201334 0.1 0  0.8194583352091183 0.1 0  0.8259979035038147 0.1 0  0.8324320194413813 0.1 0  0.8387623808293405 0.1 0  0.8449906627004957 0.1 0  0.8511185094880469 0.1 0  0.8571475426008311 0.1 0  0.8630793533568246 0.1 0  0.8689155114558531 0.1 0  0.8746575581239063 0.1 0  0.8803070109173519 0.1 0  0.885865363938836 0.1 0  0.8913340851680313 0.1 0  0.8967146206523592 0.1 0  0.9020083930695622 0.1 0  0.9072167995950768 0.1 0  0.9123412183131177 0.1 0  0.9173830029719022 0.1 0  0.9223434865647732 0.1 0  0.9272239785872722 0.1 0  0.9320257720706087 0.1 0  0.9367501330378739 0.1 0  0.9413983102716995 0.1 0  0.9459715351562933 0.1 0  0.9504710127113115 0.1 0  0.9548979346500661 0.1 0  0.9592534708344373 0.1 0  0.9635387708980176 0.1 0  0.9677549682252325 0.1 0  0.971903177251235 0.1 0  0.9759844952956497 0.1 0  0.9840000000000086 0.1 0  0.987999999999974 0.1 0  0.9919999999999393 0.1 0  0.9959999999999913 0.1 0  1 0.09591793123533533 0  1 0.09133596463859224 0  1 0.08619288104391448 0  1 0.08041996484521211 0  1 0.07394008421771697 0  1 0.06666666567302955 0  1 0.05850252932209174 0  1 0.04933859630113544 0  1 0.03905242821848202 0  1 0.02750659386753798 0  1 0.01454683679239736 0  1.015625 0 0  1.03125 0 0  1.046875 0 0  1.0625 0 0  1.078125 0 0  1.09375 0 0  1.109375 0 0  1.125 0 0  1.140625 0 0  1.15625 0 0  1.171875 0 0  1.1875 0 0  1.203125 0 0  1.21875 0 0  1.234375 0 0  1.25 0 0  1.265625 0 0  1.28125 0 0  1.296875 0 0  1.3125 0 0  1.328125 0 0  1.34375 0 0  1.359375 0 0  1.375 0 0  1.390625 0 0  1.40625 0 0  1.421875 0 0  1.4375 0 0  1.453125 0 0  1.46875 0 0  1.484375 0 0  1.515920751924515 0 0  1.531989369316721 0 0  1.54820720925872 0 0  1.564575665560501 0 0  1.581096138674279 0 0  1.597770029901263 0 0  1.614598783332311 0 0  1.631583831055205 0 0  1.64872661129721 0 0  1.666028606716533 0 0  1.683491276608443 0 0  1.701116134125304 0 0  1.718904673324128 0 0  1.736858414799339 0 0  1.754978895814663 0 0  1.773267661782904 0 0  1.791726281103402 0 0  1.810356325314689 0 0  1.8291593848892 0 0  1.848137076690385 0 0  1.867291007717254 0 0  1.886622833871288 0 0  1.90613418642363 0 0  1.925826753299799 0 0  1.945702199101513 0 0  1.96576223584749 0 0  1.986008569283268 0 0  2.006442931928877 0 0  2.02706707547783 0 0  2.047882750887917 0 0  2.06889175187935 0 0  2.090095860038271 0 0  2.111496891648636 0 0  2.133096679109554 0 0  2.154897066851056 0 0  2.176899916687499 0 0  2.199107102752146 0 0  2.22152053937028 0 0  2.244142122958061 0 0  2.266973806444078 0 0  2.290017523268154 0 0  2.313275249499252 0 0  2.336748971745516 0 0  2.360440702338606 0 0  2.384352453384031 0 0  2.408486280477412 0 0  2.432844240041185 0 0  2.457428414757088 0 0  2.482240901796653 0 0  2.507283830121838 0 0  2.532559332080812 0 0  2.558069568787417 0 0  2.583816724966441 0 0  2.60980299606584 0 0  2.636030600971886 0 0  2.662501790984011 0 0  2.689218818279327 0 0  2.716183964547616 0 0  2.743399548861297 0 0  2.77086788244719 0 0  2.798591312896326 0 0  2.826572223178268 0 0  2.854812990138617 0 0  2.883316031690714 0 0  2.912083780657189 0 0  2.941118704633482 0 0  2.970423276998917 0 0  3 0.02999999999994495 0  3 0.05999999999987042 0  3 0.089999999999783 0  3 0.119999999999701 0  3 0.149999999999619 0  3 0.179999999999692 0  3 0.2099999999997737 0  3 0.2399999999998511 0  3 0.2699999999999185 0  2.970138294777171 0.3 0  2.940375666438236 0.3 0  2.910711782853056 0.3 0  2.881146331305122 0.3 0  2.851678975030285 0.3 0  2.822309388626621 0.3 0  2.793037250095074 0.3 0  2.76386223529133 0.3 0  2.734784017903872 0.3 0  2.705802289276642 0.3 0  2.676916713794697 0.3 0  2.648126987654635 0.3 0  2.619432780406184 0.3 0  2.590833779385199 0.3 0  2.562329669847737 0.3 0  2.533920134950189 0.3 0  2.505604855727852 0.3 0  2.477383539822502 0.3 0  2.449255847639465 0.3 0  2.421221492569094 0.3 0  2.393280152486815 0.3 0  2.36543151914496 0.3 0  2.337675285481809 0.3 0  2.310011142385583 0.3 0  2.282438797441587 0.3 0  2.254957931061538 0.3 0  2.227568248063605 0.3 0  2.200269436651085 0.3 0  2.173061204949961 0.3 0  2.145943251515011 0.3 0  2.118915272469994 0.3 0  2.091976978084957 0.3 0  2.065128060700849 0.3 0  2.038368218849433 0.3 0  2.01169717777258 0.3 0  1.985114624111908 0.3 0  1.958620267850966 0.3 0  1.93221382054972 0.3 0  1.905894991850698 0.3 0  1.879663489459713 0.3 0  1.853519019126419 0.3 0  1.827461291053897 0.3 0  1.801490031354372 0.3 0  1.775604937580312 0.3 0  1.74980572560258 0.3 0  1.724092118631866 0.3 0  1.698463829173586 0.3 0  1.672920575782554 0.3 0  1.647462076974085 0.3 0  1.622088043536933 0.3 0  1.5967981978949 0.3 0  1.571592267767068 0.3 0  1.546469970305736 0.3 0  1.521431023814044 0.3 0  1.496475156230927 0.3 0  1.471602093687753 0.3 0  1.446811560490646 0.3 0  1.422103279101731 0.3 0  1.397476971708191 0.3 0  1.37293238939876 0.3 0  1.348469231419202 0.3 0  1.324087248732772 0.3 0  1.299786165921677 0.3 0  1.275565710847046 0.3 0  1.251425617644257 0.3 0  1.227365618676339 0.3 0  1.203385446174014 0.3 0  1.179484853067473 0.3 0  1.155663548773374 0.3 0  1.131921292279077 0.3 0  1.108257802159295 0.3 0  1.084672829009693 0.3 0  1.061166115303374 0.3 0  1.037737392995421 0.3 0  1.01438640299116 0.3 0  0.991112899770314 0.3 0  0.9679166155523955 0.3 0  0.944797284182564 0.3 0  0.921754678526042 0.3 0  0.8987885143602501 0.3 0  0.8758985548820624 0.3 0  0.8530845484099929 0.3 0  0.8303462351786988 0.3 0  0.8076833651172373 0.3 0  0.7850956864865304 0.3 0  0.7625829601354557 0.3 0  0.7401449314598274 0.3 0  0.717781337993959 0.3 0  0.6954919649675473 0.3 0  0.6732765357561226 0.3 0  0.6511348120768439 0.3 0  0.6290665642016573 0.3 0  0.6070715355430467 0.3 0  0.5851494825775325 0.3 0  0.5633001690203812 0.3 0  0.5415233562273221 0.3 0  0.5198187909431873 0.3 0  0.4981862401387795 0.3 0  0.4766254686134248 0.3 0  0.4551362360485234 0.3 0  0.4337182975262159 0.3 0  0.4123714223228037 0.3 0  0.3910953802377493 0.3 0  0.3698899313205595 0.3 0  0.3487548463710963 0.3 0  0.3276898864081783 0.3 0  0.3066948129116018 0.3 0  0.2857694003037476 0.3 0  0.2649134227095047 0.3 0  0.2441266417321288 0.3 0  0.2234088223399122 0.3 0  0.2027597568977288 0.3 0  0.1821792020676698 0.3 0  0.1616669305402443 0.3 0  0.1412227158799362 0.3 0  0.12084633013886 0.3 0  0.1005375673448281 0.3 0  0.08029618164595353 0.3 0  0.06012194778526769 0.3 0  0.04001466495039718 0.3 0  0.01997408913631205 0.3 0  0 0.2800000000000553 0  0 0.2600000000001105 0  0 0.2400000000001658 0  0 0.2200000000002211 0  0 0.2000000000002764 0  0 0.1800000000002244 0  0 0.1600000000001691 0  0 0.140000000000115 0  0 0.1200000000000564 0  1.13346801534201 0.01255848438672509 0  1.003577645172735 0.09351054173913405 0  0.9777559943702486 0.1034978156913738 0  0.9524533750752109 0.1040889939962738 0  0.9296242411226409 0.1041520033606139 0  0.9046110503652111 0.104409422380137 0  0.8777709649694228 0.1053360318797398 0  0.8483859145648608 0.1061007868330701 0  0.8162363822948977 0.1052777104363292 0  0.7893110024210437 0.1060761643971561 0  0.7587949382612539 0.1067265405088633 0  0.7280603867732535 0.1069398153264939 0  0.6947001989413015 0.1075609887579097 0  0.6590363283767549 0.1076715322596598 0  0.6210028614493155 0.1072970410408442 0  1.1953125 0.01353164693413185 0  1.258193991486058 0.01269648635163345 0  1.3201967268638 0.01407907077719561 0  1.383538555392096 0.01434101079053473 0  1.445312500000001 0.01303671693628424 0  1.508925448095738 0.01398525724792267 0  0.9939176689634008 0.1034638089837981 0  1.120967497222226 0.2796788492172345 0  1.572835902117391 0.01424132418857359 0  1.637573277451887 0.01212536916586023 0  1.709730776795181 0.01466855431023635 0  1.005631976950563 0.07074019818158772 0  1.784944696816299 0.01454708406461822 0  0.5805605730631225 0.1101465090472147 0  1.855621181165637 0.01550931272897607 0  0.5366111276616774 0.1096761308243709 0  1.935200147913231 0.01760344159641829 0  1.214922267975168 0.2799787705802257 0  1.31178773425331 0.2792
[...]
<PointData  Scalars="pressure"> 
<DataArray  type="Float64"  Name="pressure"  format="ascii">1.5982661348863555e-01  -1.6504954467634944e-01  -2.1712030613734770e-01  -1.6194416497908939e-01  -4.1151704482623681e-02  0.0000000000000000e+00  0.0000000000000000e+00  1.5983357227741235e-01  1.5390049116861360e-01  1.4806986048582937e-01  1.4233315567469484e-01  1.3668885231673109e-01  1.3113543771934397e-01  1.2567143316077095e-01  1.2029540369817708e-01  1.1500588069936589e-01  1.0980146848041616e-01  1.0468077916146862e-01  9.9642409706100055e-02  9.4685011264462729e-02  8.9807269652114108e-02  8.5007825162076625e-02  8.0285381160279279e-02  7.5638721643981430e-02  7.1066457831317625e-02  6.6567396488523792e-02  6.2140298066566915e-02  5.7783868294559268e-02  5.3496944031852948e-02  4.9278395206146228e-02  4.5126883075735674e-02  4.1041326522545475e-02  3.7020447630921251e-02  3.3063150733010770e-02  2.9168390593316915e-02  2.5334909329752287e-02  2.1561534775996111e-02  1.7847222069900564e-02  1.4190847786869031e-02  1.0591229476932171e-02  7.0473772079712874e-03  3.5580698896009451e-03  1.2229072467027390e-04  -3.2611238797760462e-03  -6.5932382812736974e-03  -9.8747458624285998e-03  -1.3107422004310344e-02  -1.6291893199302045e-02  -1.9429266098891878e-02  -2.2520799066986761e-02  -2.5567504467816270e-02  -2.8569847897424276e-02  -3.1529828873189190e-02  -3.4447948379979304e-02  -3.7325317993997763e-02  -4.0163061228945807e-02  -4.2962161135956460e-02  -4.5723658422452060e-02  -4.8448722798889989e-02  -5.1138281959279795e-02  -5.3793297407702050e-02  -5.6414717557952042e-02  -5.9004091010907103e-02  -6.1561815836112782e-02  -6.4089145213670692e-02  -6.6586737419022241e-02  -6.9056579834515228e-02  -7.1499097984371596e-02  -7.3914560686188638e-02  -7.6304674238820619e-02  -7.8670983849552123e-02  -8.1013222182231615e-02  -8.3333415940619035e-02  -8.5632278653558117e-02  -8.7910116333954319e-02  -9.0168482983324180e-02  -9.2408267793417292e-02  -9.4630387261757487e-02  -9.6836538703063399e-02  -9.9026842141856530e-02  -1.0120175504648357e-01  -1.0336195609080212e-01  -1.0551076476796357e-01  -1.0764733327107003e-01  -1.0977233555440832e-01  -1.1188758934059290e-01  -1.1399348645906521e-01  -1.1609094993979828e-01  -1.1818105024821958e-01  -1.2026558182587521e-01  -1.2234499027971499e-01  -1.2441947979880769e-01  -1.2649128632187231e-01  -1.2856122904616246e-01  -1.3063033560923462e-01  -1.3269984289005032e-01  -1.3477082542903915e-01  -1.3684472673128892e-01  -1.3892300664923662e-01  -1.4100726118518797e-01  -1.4309902520813417e-01  -1.4519961600092715e-01  -1.4730876368640447e-01  -1.4941131519907486e-01  -1.5177726416026488e-01  -1.5271361265050579e-01  -1.5597332190530483e-01  -1.5215789239917979e-01  -1.5734234926374940e-01  -1.5533554158006740e-01  -2.0404112132211691e-01  -1.8240535350792944e-01  -1.7579523855949231e-01  -1.7099268306657306e-01  -1.6775390813362398e-01  -1.6532467012911428e-01  -1.6350619094778532e-01  -1.6217519698127383e-01  -1.6137730351969459e-01  -1.6118385123067003e-01  -1.6159188338127559e-01  -1.6238519228314385e-01  -1.6276163792162024e-01  -1.6255802072391351e-01  -1.6188967276018262e-01  -1.6084732661331580e-01  -1.5947473050742178e-01  -1.5775686945894141e-01  -1.5568091495466099e-01  -1.5327577835307069e-01  -1.5055863560367472e-01  -1.4753328083327705e-01  -1.4421321381197649e-01  -1.4060926171600660e-01  -1.3673322922148268e-01  -1.3260524335748389e-01  -1.2823794931030844e-01  -1.2364348705344377e-01  -1.1883994770910514e-01  -1.1384598594483666e-01  -1.0867187855015639e-01  -1.0334760256935958e-01  -9.7891127610142056e-02  -9.2318231891044975e-02  -8.6659705701790629e-02  -8.0933914614916086e-02  -7.5170359381903695e-02  -6.9391404515365046e-02  -6.3619836080583636e-02  -5.7887518190394720e-02  -5.2215474078381049e-02  -4.6629940139264907e-02  -3.5704902891866230e-02  -3.0375311096610989e-02  -2.5172517657778091e-02  -2.0131220160033405e-02  -1.5278801634535330e-02  -1.0617304291477754e-02  -6.1744295151864121e-03  -1.9556143516231677e-03  1.9899942077993569e-03  5.6865200087162487e-03  9.1331451629481555e-03  1.2308571819402847e-02  1.5215041646386832e-02  1.7859506430751140e-02  2.0245952929074339e-02  2.2379567392638879e-02  2.4275907735718177e-02  2.5935607854085111e-02  2.7373374216660269e-02  2.8619983437556777e-02  2.9664159567422715e-02  3.0536459146018349e-02  3.1250720761373849e-02  3.1815248258590723e-02  3.2251759276579438e-02  3.2564951640908141e-02  3.2786066257040190e-02  3.2905912827569966e-02  3.2945621896090342e-02  3.2910193238684216e-02  3.2807540508212080e-02  3.2647172332730269e-02  3.2438354913981171e-02  3.2185188217316946e-02  3.1888433695649018e-02  3.1555213956601928e-02  3.1186183701053288e-02  3.0783974518537441e-02  3.0349589157654514e-02  2.9883345970450999e-02  2.9385514484906949e-02  2.8855909482463891e-02  2.8293193028549251e-02  2.7697546298902399e-02  2.7066384501381727e-02  2.6398298969641822e-02  2.5694286167607376e-02  2.4949478659451487e-02  2.4161861620531105e-02  2.3335717595136165e-02  2.2461502960024984e-02  2.1546214225824981e-02  2.0579385231919801e-02  1.9569784271143958e-02  1.8509651579849594e-02  1.7395176871858698e-02  1.6236839925429285e-02  1.5020478041564082e-02  1.3757420081504178e-02  1.2441595234569346e-02  1.1071991074839851e-02  9.6486136582641328e-03  8.1736281060578383e-03  6.6501905151566615e-03  5.0688912040327749e-03  3.4474930409694286e-03  1.7696563399333359e-03  0.0000000000000000e+00  0.0000000000000000e+00  0.0000000000000000e+00  0.0000000000000000e+00  0.0000000000000000e+00  0.0000000000000000e+00  0.0000000000000000e+00  0.0000000000000000e+00  0.0000000000000000e+00  1.9245653754292932e-03  3.7206658899314187e-03  5.4890871897113700e-03  7.2042627372665841e-03  8.8699740798242194e-03  1.0484954579880657e-02  1.2048277879555428e-02  1.3558208509189495e-02  1.5011862973055165e-02  1.6407017243813764e-02  1.7739631840782179e-02  1.9007202085822929e-02  2.0204622089760624e-02  2.1328859496275047e-02  2.2375028098690092e-02  2.3336525952393307e-02  2.4212912370279845e-02  2.4993012987910821e-02  2.5672126551570754e-02  2.6244064552528989e-02  2.6701936534524736e-02  2.7039054889415791e-02  2.7249732670960425e-02  2.7323241719534996e-02  2.7257808974734850e-02  2.7041865330893561e-02  2.6673164521378936e-02  2.6140381598742917e-02  2.5438442852307175e-02  2.4564740501829597e-02  2.3508646236515052e-02  2.2264765978387491e-02  2.0848025618761527e-02  1.9244240792154931e-02  1.7427510181342164e-02  1.5438314708735235e-02  1.3253151309985408e-02  1.0873243530967825e-02  8.3000209476510808e-03  5.5411947143046824e-03  2.5879975877403567e-03  -5.4578226888330633e-04  -3.8684565909740416e-03  -7.3693769270928621e-03  -1.1059651121611841e-02  -1.4923645532288995e-02  -1.8962367521530431e-02  -2.3166913692339277e-02  -2.7540289737136708e-02  -3.2068552008785958e-02  -3.6748811593313585e-02  -4.1569421431055631e-02  -4.6516847198612911e-02  -5.1582169870698982e-02  -5.6749460404671714e-02  -6.1994829417766274e-02  -6.7258760560010525e-02  -7.2587169226548412e-02  -7.7894904479356347e-02  -8.3121542085450265e-02  -8.8270681701965031e-02  -9.3270278155930378e-02  -9.8100053278319999e-02  -1.0265355205437983e-01  -1.0692359813613135e-01  -1.1079970479965086e-01  -1.1426964248093668e-01  -1.1722183772775800e-01  -1.1966050908805517e-01  -1.2145311668078339e-01  -1.2261536521639113e-01  -1.2307691276167244e-01  -1.2271206171004341e-01  -1.2169360760581278e-01  -1.1989273548983820e-01  -1.1732110973282894e-01  -1.1409953318571629e-01  -1.1025531978292796e-01  -1.0591448617525685e-01  -1.0114699844461465e-01  -9.5954606386594171e-02  -9.0470695312825228e-02  -8.4734121978430554e-02  -7.8834820732912536e-02  -7.2777449733631247e-02  -6.6589301834222153e-02  -6.0321108235270655e-02  -5.3985618220327158e-02  -4.7593606154324397e-02  -4.1167916471006039e-02  -3.4713516721050108e-02  -2.8248118771352852e-02  -2.1774566216661399e-02  -1.5295360649429150e-02  -8.8215486842650806e-03  -2.3543330187865206e-03  4.1051084425617898e-03  1.0553419502870776e-02  1.6987613644182487e-02  2.3406570307589795e-02  2.9809791349201271e-02  3.6195800886645410e-02  4.2564418988470791e-02  4.8914095836483110e-02  5.5245175363863745e-02  6.1556960982296252e-02  6.7849193823325132e-02  7.4121783878410077e-02  8.0374436815383046e-02  8.6607106727184566e-02  9.2819762815255419e-02  9.9012314543620542e-02  1.0518473927666752e-01  1.1133703988892799e-01  1.1746922986137748e-01  1.2358129122075434e-01  1.2967329443064146e-01  1.3574526227417189e-01  1.4179722513878953e-01  1.4782923758635855e-01  1.5384133601592934e-01  1.5983354539626354e-01  1.5983325617074937e-01  1.5983254980084430e-01  1.5983144096137536e-01  1.5983009407898968e-01  1.5982874580681741e-01  1.5982763464984848e-01  1.5982692357324166e-01  1.5982663538693936e-01  -1.5411476428044507e-01  -1.8697426326513822e-01  -1.5546199111079656e-01  -1.4207722257999594e-01  -1.3176110264963783e-01  -1.2137886934584380e-01  -1.1100348867087152e-01  -1.0028478886302239e-01  -8.9107993402098074e-02  -8.0084723662838253e-02  -7.0122053213035232e-02  -6.0299894553985683e-02  -4.9815610912726384e-02  -3.8752412425710876e-02  -2.7071373838353022e-02  -1.4226785304602738e-01  -1.2581457311373231e-01  -1.0614740888547082e-01  -8.3733499873444014e-02  -6.1023335406739841e-02  -3.8455501822833901e-02  -1.6774640161554580e-01  -1.2146058290995843e-01  -1.8095541759926562e-02  -9.2822718173041024e-04  1.3346784416295707e-02  -1.6723590401561436e-01  2.3261887796162607e-02  -1.4743878671245143e-02  2.8757709656758466e-02  -1.4172449108608436e-03  3.1809752218664132e-02  -1.1196893482998031e-01  -9.5047820712348421e-02  3.2804950931451041e-02  -7.4802151433789307e-02  1.2391362808614189e-02  -4.8643256314734769e-02  3.2456251955362225e-02  2.7250241127346770e-02  -1.5967617939117548e-01  3.1300694360115858e-02  -2.5120505080888211e-02  -1.2173763741909892e-01  4.2651985941815580e-02  2.9585023971723808e-02  -2.1500396889937820e-03  6.0149016451988946e-02  6.7839331309516590e-03  2.7318034775310099e-02  1.4444941804305032e-02  7.7439681535321769e-02  -1.1542119869773193e-01  2.4570361645293463e-02  2.0033695143501971e-02  -1.0342429538698021e-01  2.4042622690884217e-02  2.1043815699445960e-02  -8.7599256327563338e-02  9.7639590181398964e-02  1.1165659208003230e-01  -1.2881624438529506e-02  1.7922397056284418e-02  1.4215962195543592e-02  2.6334426164594915e-02  -6.9890694237905088e-02  2.7181001738489748e-02  -1.4833934186308273e-01  -4.4823523883500055e-02  2.6372601027074838e-02  1.2910831387700322e-01  -2.5049915864542048e-02  1.0332294446201326e-02  2.3707091023945113e-02  -5.4672775302631749e-03  2.0364197533629964e-02  2.0698307618288968e-02  5.2080248613190321e-02  1.7014650680930977e-02  7.1041773418981977e-02  8.9819426639108205e-02  1.2759198614511424e-02  1.2141959210234440e-01  1.6116295564672929e-03  1.5425011423996590e-01  -1.6237643426466852e-01  8.1333813530947950e-03  5.7376248534701576e-03  1.3922223799491862e-01  -1.7381183844158535e-01  -1.6172990820655977e-01  -1.1783690890396396e-01  -5.7061152404155963e-02  6.8353036792346703e-03  3.2670560914370081e-02  1.3956254135092905e-01  -3.9274142429521160e-02  -6.3904223306156083e-02  -8.5064100250029501e-02  -1.0412502459892130e-01  8.7702027802051621e-02  2.7049561684291269e-02  6.8529139861792265e-02  1.0206108181326512e-01  2.5244828750452912e-02  2.2892588874519046e-02  5.0827723202293028e-02  2.5939303453049990e-02  2.8532904150524153e-02  3.5291026553595964e-02  3.0508677381802175e-02  3.1961458742096972e-02  3.2762428687530376e-02  3.2539567307897699e-02  -2.8141402579404159e-02  1.9702670541496502e-02  3.0594305117011569e-02  2.6348658526778847e-02  5.3195631209991988e-03  1.8924765482776346e-02  7.0293635514751159e-03  -8.6370243160083082e-03  1.3434505970519334e-03  -8.5978499449948231e-03  -2.0528105933640781e-02  1.5459001626898361e-01  -3.2679575536346317e-02  -4.4354250751776347e-02  -5.5119346561439755e-02  -6.5450426924545682e-02  -7.5184179628470446e-02  -8.4408564886056761e-02  -1.4866156193665275e-01  -9.5776538547771378e-02  -1.0663063327328647e-01  -1.1720612409695969e-01  -1.3460500810806275e-01  -1.2768116162035192e-01  -9.5439108866301262e-02  -1.1588317280405022e-01  -7.3358919928867367e-02  -4.9735827867705563e-02  -1.3799120494110231e-01  -1.5582581418766150e-01  1.6908743688816639e-03  1.5409322873309333e-01  4.5334804200908452e-03  -1.6215667800849271e-01  1.5484198979755212e-01  1.3692251339036184e-03  1.5073755474629397e-01  -1.6212582917973906e-01  -1.6178760200225767e-01  -1.6132950563908466e-01  -1.6182911848794973e-01  -1.6135334980765187e-01  -1.6218173980896286e-01  -1.6152488950326130e-01  -1.6263837943790127e-01  -1.6181085360830397e-01  -1.6296277027983544e-01  -1.6201648481312492e-01  -1.6289178610157171e-01  -1.6175052002792351e-01  -1.6226097591009803e-01  -1.6098297897735425e-01  -1.6117201706352832e-01  -1.5971955872138863e-01  -1.5967988875442785e-01  -1.5805824193331128e-01  -1.5760362414131679e-01  -1.5568513361748437e-01  -1.5927115589036625e-01  -1.5624092703475861e-01  -1.5348011100061917e-01  -1.5648707553694088e-01  -1.5841209078925014e-01  -1.5380172805797129e-01  -1.5090285455679989e-01  -1.5114719006537461e-01  -1.4788323165032774e-01  -1.4801113815870626e-01  -1.4442477801727566e-01  -1.4447288177471732e-01  -1.4081640085874364e-01  -1.4052990622440362e-01  -1.3613788851591946e-01  -1.3596293499060644e-01  -1.3175302850288501e-01  -1.3115268672656274e-01  -1.2678121044031090e-01  -1.2594283564484235e-01  -1.2148168810335420e-01  -1.2041894430644309e-01  -1.1591621027881656e-01  -1.1458907296436414e-01  -1.1011498123114390e-01  -1.0848717918931874e-01  -1.0409202091501878e-01  -1.0217756374076999e-01  -9.7928438603836127e-02  -9.5672544245991462e-02  -9.1661520457523404e-02  -8.8951623970366309e-02  -1.5451655656232627e-01  -1.5622423374711134e-01  -8.5306409247038903e-02  -8.2170163826930084e-02  -7.8950700807958227e-02  -7.5817471925194058e-02  -7.2682754466508487e-02  -6.9199289521987020e-02  -6.6513357973169665e-02  -6.2702515934383432e-02  -1.4974053994137940e-01  -6.0556270221178037e-02  -5.6319728021508378e-02  -5.4507664612813519e-02  -5.0067785675409614e-02  -4.8880099916507561e-02  -4.4098431965845231e-02  -1.5152088074156286e-01  -1.5331887335219610e-01  -1.6339150343889927e-01  -4.3390928053005894e-02  -3.8325034203363084e-02  -3.8179968756849578e-02  -3.2835563638626421e-02  -3.3227381812264992e-02  -2.7662419464761955e-02  -1.5962302540266657e-01  -2.8552157376168726e-02  -2.2773312450355843e-02  -1.4005390828657718e-01  -2.4139914672012534e-02  -1.8215966238122744e-02  -2.0022613493211678e-02  -1.3982888021707482e-02  -1.6117760646739126e-02  -1.0064506719669793e-02  -1.6034968579538747e-01  -1.2662757362457447e-01  -1.2549269093907212e-02  -6.4621111074196430e-03  -1.4754602047995077e-01  -1.4859176132551688e-01  -1.4609463495594832e-01  -1.1074793570037182e-01  -9.1738727278427648e-03  -3.0139481403065461e-03  -6.1438130119722979e-03  7.8007109109307432e-05  -3.2661853115085785e-03  2.7519774263463333e-03  -3.9142522259233620e-02  -1.9433570215496692e-04  -2.2137551430109894e-02  -5.8575222942000321e-02  -6.0190366835404169e-04  5.2011288068346505e-03  8.5523502938367434e-03  1.0846042395059853e-02  7.4911394449875381e-03  1.2913045363063941e-02  9.6500817572264773e-03  1.4840842619120751e-02  1.1597237668182960e-02  1.6516800608570654e-02  1.3379623319596867e-02  1.8060766603208558e-02  1.5057193739418967e-02  1.9416009346251078e-02  1.6510322371051253e-02  2.0653833137702141e-02  1.7964056091432541e-02  2.1885659386560979e-02  1.9261593875039253e-02  2.2895048039767781e-02  2.0484782404972562e-02  2.3771713533002135e-02  2.1462007889547923e-02  2.4570064161450432e-02  -7.8740170461171224e-02  -9.3679310888589995e-02  2.2463309300431993e-02  2.5243555826784829e-02  2.3413558002414740e-02  2.5885062447948103e-02  -1.4727638877100777e-01  -1.1245079968673273e-01  2.4260038923159297e-02  2.6414522197450736e-02  -1.2962344423416056e-01  -7.6283539518875843e-02  -1.4265869318313051e-01  -1.4325104374598432e-01  -1.4990331424574760e-01  -1.4342699054002539e-01  -1.4890320590748465e-01  -1.4285083856771832e-01  -1.4852920702658934e-01  -1.4170827533667429e-01  -1.4557440809097635e-01  -1.3957866008259817e-01  -1.4350761094000117e-01  -1.3708788929576507e-01  -1.3948486069838617e-01  -1.3399027852330142e-01  -1.3571659053245372e-01  -1.3074804834394455e-01  -1.3187846496014849e-01  -1.2727565219085343e-01  -1.2801526667583199e-01  -1.2374608124575484e-01  -1.2413686891442600e-01  -1.2013597198375013e-01  -1.2028605151535481e-01  -1.1651010520964604e-01  -1.1645295605293336e-01  -1.1291402349723260e-01  -1.1231927931531224e-01  -1.0904552379386984e-01  -1.0929196870457170e-01  -1.0567811178960697e-01  -1.0536465429430779e-01  -1.0206786332492759e-01  -1.0177410251428919e-01  -9.8502519233998512e-02  -9.7959460229640138e-02  -9.4879463681548940e-02  -1.2883809290283060e-01  -1.0546877270994817e-01  -1.1931186673746971e-01  -9.4277165914784397e-02  -9.1178590809462445e-02  -9.1550683843063321e-02  -8.8016403146389213e-02  -8.7437498890471879e-02  -8.4400586595591715e-02  -8.3652154820512498e-02  -8.0731803360707510e-02  -7.9882620459323914e-02  -7.7008215757211299e-02  -8.4245684920482178e-02  -1.5391692001868870e-01  -1.4476932493601630e-01  -7.6174218147424935e-02  -7.3227223135377550e-02  -7.4022911878345865e-02  -7.0244692508220519e-02  -6.9422311185472318e-02  -6.6484683658036628e-02  -6.5561392047061115e-02  -6.2700739326484983e-02  -1.3642667357678959e-01  -6.7045971119419845e-02  -6.1723990706843174e-02  -5.8931182790758679e-02  -1.2804679806269356e-01  -5.8000684456372832e-02  -5.5106869105219156e-02  -5.6312297947229986e-02  -5.2165161613574762e-02  -5.1173440498155108e-02  -4.8117679545482253e-02  -4.9070105248046156e-02  -4.5022341441438622e-02  -4.4088235881739421e-02  -4.0984008994698722e-02  -4.0043786703741403e-02  -3.6853020920955305e-02  -3.7819385349719792e-02  -3.3690136367936718e-02  -3.2696569939660955e-02  -2.9557236467686113e-02  -2.8604639236713972e-02  -2.5442915601663892e-02  -1.3785007695585877e-01  -1.0499260678682759e-01  -1.1986255722790316e-01  -2.4585976006789377e-02  -2.1361233409451591e-02  -2.2231031639093946e-02  -1.7995027569821399e-02  -1.7132031732934400e-02  -1.3765444354057361e-02  -1.8863775923385236e-02  2.4932383044768608e-02  2.6856220053611574e-02  2.5545574284427035e-02  2.7230538637508420e-02  2.6093593063622952e-02  2.7533192223806454e-02  -8.6722843851127052e-02  -4.8402397595044548e-02  -1.6320601351224723e-01  -1.2871956328641842e-02  -9.5718016332375661e-03  -9.7247233092284308e-02  2.2496781001897715e-02  2.6670687960931517e-02  1.3661791396902025e-02  2.6550233870666615e-02  2.7755034805147204e-02  2.8826340384567769e-02  2.8825966700406231e-02  2.7902274577265778e-02  2.8773325361059955e-02  2.7982279023523713e-02  2.8661816382556268e-02  2.7979658617638656e-02  2.8483257818630734e-02  2.7904690001506562e-02  2.8246685037849956e-02  2.7745729486910623e-02  2.7938440135528150e-02  2.7510398980409891e-02  2.7570726870930321e-02  2.7202185467855782e-02  2.7141476601991597e-02  2.6824375952385023e-02  2.6653039886812183e-02  2.6366417771971996e-02  2.6090124695242009e-02  2.5826514821682384e-02  2.5475748867988451e-02  2.5209397667356213e-02  2.4774337013832557e-02  2.4531986070412598e-02  2.4032625583159262e-02  2.3760108065420147e-02  2.3205073058327988e-02  2.2932720202077705e-02  2.2329853578494034e-02  2.8462421979828737e-02  -3.4723829826823725e-02  -6.8535164399138940e-02  -8.5570965975659830e-03  -5.2691461149795144e-03  -6.2750609284540227e-03  -1.8204867598869189e-03  -2.8708593398628986e-03  1.6876100773047585e-03  2.6170565922048550e-03  6.1452424580913734e-03  7.1938062780821151e-03  1.0694797718314518e-02  9.7436698491120931e-03  1.4281607732878442e-02  1.5090127204316049e-02  1.8784069397107851e-02  1.9578126009538337e-