<?xml version="1.0"?>
<VTKFile type="UnstructuredGrid"  version="0.1"  >
<UnstructuredGrid>
<Piece  NumberOfPoints="2886" NumberOfCells="5412">
<Points>
<DataArray  type="Float64"  NumberOfComponents="3"  format="ascii">0 0.1 0  0.98 0.1 0  1 0.1 0  1 0 0  1.5 0 0  3 0 0  3 0.3 0  0 0.3 0  0.01975375321854102 0.1 0  0.03918897458218897 0.1 0  0.05831079002627837 0.1 0  0.07712425666319796 0.1 0  0.0956343475259058 0.1 0  0.1138459546796227 0.1 0  0.1317638870668193 0.1 0  0.1493928840275937 0.1 0  0.1667376092280033 0.1 0  0.1838026357802664 0.1 0  0.2005924801287244 0.1 0  0.2171115811543574 0.1 0  0.2333643037107681 0.1 0  0.2493549444060462 0.1 0  0.2650877293306821 0.1 0  0.2805668058011438 0.1 0  0.2957962848620976 0.1 0  0.3107801766802674 0.1 0  0.3255224447361181 0.1 0  0.3400269848175519 0.1 0  0.3542976327080778 0.1 0  0.3683381609158136 0.1 0  0.3821522744564845 0.1 0  0.3957436316838916 0.1 0  0.4091158196437086 0.1 0  0.4222723742184605 0.1 0  0.4352167733293057 0.1 0  0.4479524348643424 0.1 0  0.4604827295467524 0.1 0  0.4728109659990664 0.1 0  0.4849404035409129 0.1 0  0.4968742471455402 0.1 0  0.508615651843175 0.1 0  0.520167721130924 0.1 0  0.5315335063628542 0.1 0  0.5427160117228604 0.1 0  0.5537181940261912 0.1 0  0.564542961924507 0.1 0  0.575193173270606 0.1 0  0.5856716438765114 0.1 0  0.5959811458006617 0.1 0  0.6061243988680743 0.1 0  0.6161040893285659 0.1 0  0.6259228503970299 0.1 0  0.6355832809287655 0.1 0  0.6450879281079505 0.1 0  0.6544393102991295 0.1 0  0.663639896558931 0.1 0  0.6726921201956305 0.1 0  0.6815983691630338 0.1 0  0.6903610031396646 0.1 0  0.6989823343332418 0.1 0  0.7074646404270378 0.1 0  0.7158101645005117 0.1 0  0.7240211149852543 0.1 0  0.7320996585612525 0.1 0  0.7400479319727645 0.1 0  0.7478680336617921 0.1 0  0.755562036504958 0.1 0  0.7631319665092091 0.1 0  0.7705798279317605 0.1 0  0.777907588066146 0.1 0  0.7851171851013118 0.1 0  0.7922105226004981 0.1 0  0.7991894774550319 0.1 0  0.8060558928136696 0.1 0  0.812811583201334 0.1 0  0.8194583352091183 0.1 0  0.8259979035038147 0.1 0  0.8324320194413813 0.1 0  0.8387623808293405 0.1 0  0.8449906627004957 0.1 0  0.8511185094880469 0.1 0  0.8571475426008311 0.1 0  0.8630793533568246 0.1 0  0.8689155114558531 0.1 0  0.8746575581239063 0.1 0  0.8803070109173519 0.1 0  0.885865363938836 0.1 0  0.8913340851680313 0.1 0  0.8967146206523592 0.1 0  0.9020083930695622 0.1 0  0.9072167995950768 0.1 0  0.9123412183131177 0.1 0  0.9173830029719022 0.1 0  0.9223434865647732 0.1 0  0.9272239785872722 0.1 0  0.9320257720706087 0.1 0  0.9367501330378739 0.1 0  0.9413983102716995 0.1 0  0.9459715351562933 0.1 0  0.9504710127113115 0.1 0  0.9548979346500661 0.1 0  0.9592534708344373 0.1 0  0.9635387708980176 0.1 0  0.9677549682252325 0.1 0  0.971903177251235 0.1 0  0.9759844952956497 0.1 0  0.9840000000000086 0.1 0  0.987999999999974 0.1 0  0.9919999999999393 0.1 0  0.9959999999999913 0.1 0  1 0.09591793123533533 0  1 0.09133596463859224 0  1 0.08619288104391448 0  1 0.08041996484521211 0  1 0.07394008421771697 0  1 0.06666666567302955 0  1 0.05850252932209174 0  1 0.04933859630113544 0  1 0.03905242821848202 0  1 0.02750659386753798 0  1 0.01454683679239736 0  1.015625 0 0  1.03125 0 0  1.046875 0 0  1.0625 0 0  1.078125 0 0  1.09375 0 0  1.109375 0 0  1.125 0 0  1.140625 0 0  1.15625 0 0  1.171875 0 0  1.1875 0 0  1.203125 0 0  1.21875 0 0  1.234375 0 0  1.25 0 0  1.265625 0 0  1.28125 0 0  1.296875 0 0  1.3125 0 0  1.328125 0 0  1.34375 0 0  1.359375 0 0  1.375 0 0  1.390625 0 0  1.40625 0 0  1.421875 0 0  1.4375 0 0  1.453125 0 0  1.46875 0 0  1.484375 0 0  1.515920751924515 0 0  1.531989369316721 0 0  1.54820720925872 0 0  1.564575665560501 0 0  1.581096138674279 0 0  1.597770029901263 0 0  1.614598783332311 0 0  1.631583831055205 0 0  1.64872661129721 0 0  1.666028606716533 0 0  1.683491276608443 0 0  1.701116134125304 0 0  1.718904673324128 0 0  1.736858414799339 0 0  1.754978895814663 0 0  1.773267661782904 0 0  1.791726281103402 0 0  1.810356325314689 0 0  1.8291593848892 0 0  1.848137076690385 0 0  1.867291007717254 0 0  1.886622833871288 0 0  1.90613418642363 0 0  1.925826753299799 0 0  1.945702199101513 0 0  1.96576223584749 0 0  1.986008569283268 0 0  2.006442931928877 0 0  2.02706707547783 0 0  2.047882750887917 0 0  2.06889175187935 0 0  2.090095860038271 0 0  2.111496891648636 0 0  2.133096679109554 0 0  2.154897066851056 0 0  2.176899916687499 0 0  2.199107102752146 0 0  2.22152053937028 0 0  2.244142122958061 0 0  2.266973806444078 0 0  2.290017523268154 0 0  2.313275249499252 0 0  2.336748971745516 0 0  2.360440702338606 0 0  2.384352453384031 0 0  2.408486280477412 0 0  2.432844240041185 0 0  2.457428414757088 0 0  2.482240901796653 0 0  2.507283830121838 0 0  2.532559332080812 0 0  2.558069568787417 0 0  2.583816724966441 0 0  2.60980299606584 0 0  2.636030600971886 0 0  2.662501790984011 0 0  2.689218818279327 0 0  2.716183964547616 0 0  2.743399548861297 0 0  2.77086788244719 0 0  2.798591312896326 0 0  2.826572223178268 0 0  2.854812990138617 0 0  2.883316031690714 0 0  2.912083780657189 0 0  2.941118704633482 0 0  2.970423276998917 0 0  3 0.02999999999994495 0  3 0.05999999999987042 0  3 0.089999999999783 0  3 0.119999999999701 0  3 0.149999999999619 0  3 0.179999999999692 0  3 0.2099999999997737 0  3 0.2399999999998511 0  3 0.2699999999999185 0  2.970138294777171 0.3 0  2.940375666438236 0.3 0  2.910711782853056 0.3 0  2.881146331305122 0.3 0  2.851678975030285 0.3 0  2.822309388626621 0.3 0  2.793037250095074 0.3 0  2.76386223529133 0.3 0  2.734784017903872 0.3 0  2.705802289276642 0.3 0  2.676916713794697 0.3 0  2.648126987654635 0.3 0  2.619432780406184 0.3 0  2.590833779385199 0.3 0  2.562329669847737 0.3 0  2.533920134950189 0.3 0  2.505604855727852 0.3 0  2.477383539822502 0.3 0  2.449255847639465 0.3 0  2.421221492569094 0.3 0  2.393280152486815 0.3 0  2.36543151914496 0.3 0  2.337675285481809 0.3 0  2.310011142385583 0.3 0  2.282438797441587 0.3 0  2.254957931061538 0.3 0  2.227568248063605 0.3 0  2.200269436651085 0.3 0  2.173061204949961 0.3 0  2.145943251515011 0.3 0  2.118915272469994 0.3 0  2.091976978084957 0.3 0  2.065128060700849 0.3 0  2.038368218849433 0.3 0  2.01169717777258 0.3 0  1.985114624111908 0.3 0  1.958620267850966 0.3 0  1.93221382054972 0.3 0  1.905894991850698 0.3 0  1.879663489459713 0.3 0  1.853519019126419 0.3 0  1.827461291053897 0.3 0  1.801490031354372 0.3 0  1.775604937580312 0.3 0  1.74980572560258 0.3 0  1.724092118631866 0.3 0  1.698463829173586 0.3 0  1.672920575782554 0.3 0  1.647462076974085 0.3 0  1.622088043536933 0.3 0  1.5967981978949 0.3 0  1.571592267767068 0.3 0  1.546469970305736 0.3 0  1.521431023814044 0.3 0  1.496475156230927 0.3 0  1.471602093687753 0.3 0  1.446811560490646 0.3 0  1.422103279101731 0.3 0  1.397476971708191 0.3 0  1.37293238939876 0.3 0  1.348469231419202 0.3 0  1.324087248732772 0.3 0  1.299786165921677 0.3 0  1.275565710847046 0.3 0  1.251425617644257 0.3 0  1.227365618676339 0.3 0  1.203385446174014 0.3 0  1.179484853067473 0.3 0  1.155663548773374 0.3 0  1.131921292279077 0.3 0  1.108257802159295 0.3 0  1.084672829009693 0.3 0  1.061166115303374 0.3 0  1.037737392995421 0.3 0  1.01438640299116 0.3 0  0.991112899770314 0.3 0  0.9679166155523955 0.3 0  0.944797284182564 0.3 0  0.921754678526042 0.3 0  0.8987885143602501 0.3 0  0.8758985548820624 0.3 0  0.8530845484099929 0.3 0  0.8303462351786988 0.3 0  0.8076833651172373 0.3 0  0.7850956864865304 0.3 0  0.7625829601354557 0.3 0  0.7401449314598274 0.3 0  0.717781337993959 0.3 0  0.6954919649675473 0.3 0  0.6732765357561226 0.3 0  0.6511348120768439 0.3 0  0.6290665642016573 0.3 0  0.6070715355430467 0.3 0  0.5851494825775325 0.3 0  0.5633001690203812 0.3 0  0.5415233562273221 0.3 0  0.5198187909431873 0.3 0  0.4981862401387795 0.3 0  0.4766254686134248 0.3 0  0.4551362360485234 0.3 0  0.4337182975262159 0.3 0  0.4123714223228037 0.3 0  0.3910953802377493 0.3 0  0.3698899313205595 0.3 0  0.3487548463710963 0.3 0  0.3276898864081783 0.3 0  0.3066948129116018 0.3 0  0.2857694003037476 0.3 0  0.2649134227095047 0.3 0  0.2441266417321288 0.3 0  0.2234088223399122 0.3 0  0.2027597568977288 0.3 0  0.1821792020676698 0.3 0  0.1616669305402443 0.3 0  0.1412227158799362 0.3 0  0.12084633013886 0.3 0  0.1005375673448281 0.3 0  0.08029618164595353 0.3 0  0.06012194778526769 0.3 0  0.04001466495039718 0.3 0  0.01997408913631205 0.3 0  0 0.2800000000000553 0  0 0.2600000000001105 0  0 0.2400000000001658 0  0 0.2200000000002211 0  0 0.2000000000002764 0  0 0.1800000000002244 0  0 0.1600000000001691 0  0 0.140000000000115 0  0 0.1200000000000564 0  1.13346801534201 0.01255848438672509 0  1.003577645172735 0.09351054173913405 0  0.9777559943702486 0.1034978156913738 0  0.9524533750752109 0.1040889939962738 0  0.9296242411226409 0.1041520033606139 0  0.9046110503652111 0.104409422380137 0  0.8777709649694228 0.1053360318797398 0  0.8483859145648608 0.1061007868330701 0  0.8162363822948977 0.1052777104363292 0  0.7893110024210437 0.1060761643971561 0  0.7587949382612539 0.1067265405088633 0  0.7280603867732535 0.1069398153264939 0  0.6947001989413015 0.1075609887579097 0  0.6590363283767549 0.1076715322596598 0  0.6210028614493155 0.1072970410408442 0  1.1953125 0.01353164693413185 0  1.258193991486058 0.01269648635163345 0  1.3201967268638 0.01407907077719561 0  1.383538555392096 0.01434101079053473 0  1.445312500000001 0.01303671693628424 0  1.508925448095738 0.01398525724792267 0  0.9939176689634008 0.1034638089837981 0  1.120967497222226 0.2796788492172345 0  1.572835902117391 0.01424132418857359 0  1.637573277451887 0.01212536916586023 0  1.709730776795181 0.01466855431023635 0  1.005631976950563 0.07074019818158772 0  1.784944696816299 0.01454708406461822 0  0.5805605730631225 0.1101465090472147 0  1.855621181165637 0.01550931272897607 0  0.5366111276616774 0.1096761308243709 0  1.935200147913231 0.01760344159641829 0  1.214922267975168 0.2799787705802257 0  1.31178773425331 0.2792
[...]
<PointData  Scalars="pressure"> 
<DataArray  type="Float64"  Name="pressure"  format="ascii">1.5915260968819317e-01  -1.6518790666622124e-01  -2.1636302750978020e-01  -1.6158360740402605e-01  -4.0582814203275114e-02  0.0000000000000000e+00  0.0000000000000000e+00  1.5915972512882778e-01  1.5322648745167369e-01  1.4739585533076521e-01  1.4165914693319387e-01  1.3601483768202749e-01  1.3046141441824097e-01  1.2499739817985908e-01  1.1962135419465902e-01  1.1433181279027023e-01  1.0912737836116586e-01  1.0400666266915691e-01  9.8968261623256476e-02  9.4010825984290780e-02  8.9133041465273913e-02  8.4333546796992204e-02  7.9611044715431123e-02  7.4964319827600004e-02  7.0391979923014547e-02  6.5892831984903824e-02  6.1465635351733258e-02  5.7109092978019818e-02  5.2822041476052045e-02  4.8603350763730978e-02  4.4451677128312862e-02  4.0365939793847401e-02  3.6344856393612471e-02  3.2387330558916780e-02  2.8492316907562456e-02  2.4658552519306320e-02  2.0884861653666088e-02  1.7170198304770467e-02  1.3513435843624157e-02  9.9133869471972405e-03  6.3690607718913340e-03  2.8792297952544743e-03  -5.5712502528836982e-04  -3.9411730110156043e-03  -7.2739823397780685e-03  -1.0556242722153010e-02  -1.3789749588432943e-02  -1.6975124459150313e-02  -2.0113480526414863e-02  -2.3206085475674661e-02  -2.6253956263278224e-02  -2.9257551900315898e-02  -3.2218898259143341e-02  -3.5138490794164867e-02  -3.8017449068308493e-02  -4.0856905148121438e-02  -4.3657847674012783e-02  -4.6421324760468521e-02  -4.9148516535859110e-02  -5.1840355953975598e-02  -5.4497810979200458e-02  -5.7121836541982558e-02  -5.9714001138563573e-02  -6.2274697712030057e-02  -6.4805193535558442e-02  -6.7306147810728828e-02  -6.9779580085610235e-02  -7.2225911216452346e-02  -7.4645404260342260e-02  -7.7039791693567269e-02  -7.9410641475295654e-02  -8.1757668635646180e-02  -8.4082935564718408e-02  -8.6387160060846263e-02  -8.8670645565456230e-02  -9.0934972419835183e-02  -9.3181040499910439e-02  -9.5409779618416263e-02  -9.7622918229055555e-02  -9.9820573827343800e-02  -1.0200320399094868e-01  -1.0417150277026486e-01  -1.0632886374109922e-01  -1.0847441411985406e-01  -1.1060884374189493e-01  -1.1273401422642461e-01  -1.1485032981812258e-01  -1.1695873981356507e-01  -1.1906035087179263e-01  -1.2115701405391899e-01  -1.2324919582787296e-01  -1.2533712649543163e-01  -1.2742312752137239e-01  -1.2950807033831013e-01  -1.3159304793160106e-01  -1.3367938509198954e-01  -1.3576824650449401e-01  -1.3786119481708864e-01  -1.3995983406120432e-01  -1.4206593956631411e-01  -1.4418132351731905e-01  -1.4630741140984183e-01  -1.4844502034838281e-01  -1.5058136986358053e-01  -1.5295341757158029e-01  -1.5407980044414396e-01  -1.5755143304394897e-01  -1.5455225432555780e-01  -1.5960649006492342e-01  -1.5721807490543085e-01  -2.0355553986466352e-01  -1.8202732199975830e-01  -1.7543195830800498e-01  -1.7063505434355611e-01  -1.6739781482348084e-01  -1.6496877351243139e-01  -1.6314974672078764e-01  -1.6181763444212482e-01  -1.6101844655311962e-01  -1.6082379712042696e-01  -1.6123122832493450e-01  -1.6202474941481512e-01  -1.6240065860800010e-01  -1.6219601613692705e-01  -1.6152612239251041e-01  -1.6048161390122864e-01  -1.5910613517834271e-01  -1.5738453980704026e-01  -1.5530390501392866e-01  -1.5289314227381950e-01  -1.5016943724814411e-01  -1.4713657675807620e-01  -1.4380810057950758e-01  -1.4019489359022086e-01  -1.3630882124398072e-01  -1.3217012264489936e-01  -1.2779155715113233e-01  -1.2318538227401903e-01  -1.1836983593181125e-01  -1.1336373426879479e-01  -1.0817754834746092e-01  -1.0284138443367902e-01  -9.7373471147293167e-02  -9.1789737546377537e-02  -8.6121200584034829e-02  -8.0386352032201638e-02  -7.4614991623653412e-02  -6.8829582021384172e-02  -6.3053071559634410e-02  -5.7317479015146479e-02  -5.1643939863874333e-02  -4.6058780839619000e-02  -3.5140327914289435e-02  -2.9817114416975939e-02  -2.4622794588066068e-02  -1.9592033454847418e-02  -1.4752078022479978e-02  -1.0105044854963495e-02  -5.6782403072312649e-03  -1.4770258732228897e-03  2.4494699330419923e-03  6.1257042862604217e-03  9.5511963019161671e-03  1.2704816521129919e-02  1.5589017468458730e-02  1.8211041461412433e-02  2.0575112703272797e-02  2.2686614711266723e-02  2.4561332965912806e-02  2.6200108956058430e-02  2.7617723009462671e-02  2.8845142613657556e-02  2.9871197032466969e-02  3.0726499906128694e-02  3.1424947314071326e-02  3.1974849672993001e-02  3.2397950009367731e-02  3.2698923514754216e-02  3.2908899012730669e-02  3.3018745370336278e-02  3.3049472714523701e-02  3.3006042023130414e-02  3.2896298280240814e-02  3.2729652851794237e-02  3.2515271453780109e-02  3.2257178609751573e-02  3.1956093948222089e-02  3.1619031101382658e-02  3.1246593444300183e-02  3.0841338126652681e-02  3.0404211043180834e-02  2.9935479104688099e-02  2.9435362489182024e-02  2.8903630654280508e-02  2.8338914973366020e-02  2.7741353112625652e-02  2.7108341343887919e-02  2.6438450952996750e-02  2.5732641854217427e-02  2.4986051400330667e-02  2.4196648768075864e-02  2.3368707098313016e-02  2.2492675278688142e-02  2.1575551582664880e-02  2.0606863713536795e-02  1.9595383328905661e-02  1.8533355519938600e-02  1.7416961243730950e-02  1.6256703582734289e-02  1.5038409109762481e-02  1.3773420916934054e-02  1.2455671522670426e-02  1.1084157638697668e-02  9.6588835740978821e-03  8.1820353346278001e-03  6.6567642795918357e-03  5.0736858031352992e-03  3.4505594154437993e-03  1.7710379283237228e-03  0.0000000000000000e+00  0.0000000000000000e+00  0.0000000000000000e+00  0.0000000000000000e+00  0.0000000000000000e+00  0.0000000000000000e+00  0.0000000000000000e+00  0.0000000000000000e+00  0.0000000000000000e+00  1.9267732649406657e-03  3.7251643855537881e-03  5.4959082413661682e-03  7.2135152230652817e-03  8.8817627409912281e-03  1.0499399860913991e-02  1.2065512447337355e-02  1.3578376601290510e-02  1.5035124992631798e-02  1.6433548445855640e-02  1.7769623002291339e-02  1.9040859237874210e-02  2.0242166433387217e-02  2.1370526958911173e-02  2.2421064468664202e-02  2.3387199798357697e-02  2.4268489019119439e-02  2.5053783703937630e-02  2.5738388363420486e-02  2.6316118574901719e-02  2.6780094054848630e-02  2.7123615330930443e-02  2.7341007979259042e-02  2.7421555445225312e-02  2.7363400460325073e-02  2.7155049893500829e-02  2.6794188629716886e-02  2.6269488796761060e-02  2.5575861926663099e-02  2.4710668210562923e-02  2.3663283198432462e-02  2.2428283878314467e-02  2.1020542752179457e-02  1.9425851391288683e-02  1.7618348319319601e-02  1.5638511958829562e-02  1.3462688298742611e-02  1.1092254327728319e-02  8.5285471254702636e-03  5.7793189539113140e-03  2.8357922893275391e-03  -2.8829923129720903e-04  -3.6011692613650208e-03  -7.0922124723496720e-03  -1.0772465148530917e-02  -1.4626513749886169e-02  -1.8655235843394753e-02  -2.2849979490684378e-02  -2.7213610173775823e-02  -3.1732393661428410e-02  -3.6403576201168297e-02  -4.1215626340304533e-02  -4.6155282540806648e-02  -5.1213733363175619e-02  -5.6375167814448741e-02  -6.1616096040208825e-02  -6.6877901284673996e-02  -7.2205340627712680e-02  -7.7514553211937440e-02  -8.2745813574189933e-02  -8.7902381438357102e-02  -9.2912898522339027e-02  -9.7757330214596705e-02  -1.0232979242898166e-01  -1.0662344769312924e-01  -1.1052834835034725e-01  -1.1403236603253665e-01  -1.1702458229854580e-01  -1.1950906404345542e-01  -1.2135352855412204e-01  -1.2257326639472194e-01  -1.2309727299760195e-01  -1.2279844834946112e-01  -1.2184837903146345e-01  -1.2011532940414320e-01  -1.1760885212181309e-01  -1.1444791325897830e-01  -1.1065793206032112e-01  -1.0636486095202750e-01  -1.0163853207760352e-01  -9.6479856813651788e-02  -9.1023957626145624e-02  -8.5310085262876131e-02  -7.9429819904786758e-02  -7.3387800189324628e-02  -6.7211823255588526e-02  -6.0953638817229240e-02  -5.4626255602856853e-02  -4.8240661789913895e-02  -4.1820186348956769e-02  -3.5369901658149301e-02  -2.8907900468708961e-02  -2.2437089493297778e-02  -1.5960024620446642e-02  -9.4879937136014489e-03  -3.0222276507292363e-03  3.4360690015223039e-03  9.8834651293116492e-03  1.6316907661766408e-02  2.2735249499870287e-02  2.9137980261711025e-02  3.5523590059842458e-02  4.1891893636968651e-02  4.8241305313254670e-02  5.4572175233830650e-02  6.0883789782400874e-02  6.7175882873110326e-02  7.3448360977985405e-02  7.9700921795055404e-02  8.5933516789942654e-02  9.2146112946438374e-02  9.8338616343491753e-02  1.0451100222155882e-01  1.1066327201374018e-01  1.1679543799136216e-01  1.2290748026239817e-01  1.2899946948324567e-01  1.3507142730950580e-01  1.4112338329756280e-01  1.4715539188597465e-01  1.5316748865201110e-01  1.5915969764385601e-01  1.5915940191222994e-01  1.5915867964356634e-01  1.5915754584025693e-01  1.5915616863145771e-01  1.5915479000154592e-01  1.5915365382854044e-01  1.5915292674726314e-01  1.5915263207831357e-01  -1.5373462318696457e-01  -1.8654988888056301e-01  -1.5665949805772253e-01  -1.4315191494269203e-01  -1.3273527585012904e-01  -1.2227869251540492e-01  -1.1184708552799530e-01  -1.0108404421475771e-01  -8.9872380106086572e-02  -8.0827868337229922e-02  -7.0847183750812212e-02  -6.1011669650979684e-02  -5.0516847193381349e-02  -3.9445605303323604e-02  -2.7758583029220813e-02  -1.4185847388476577e-01  -1.2536290710757311e-01  -1.0564869686007677e-01  -8.3191940388974553e-02  -6.0456744739248412e-02  -3.7890758345125113e-02  -1.6910821295419518e-01  -1.2138419655514139e-01  -1.7563826060636441e-02  -4.5691548891771600e-04  1.3732368774836979e-02  -1.6687663181747547e-01  2.3555982585679938e-02  -1.5426786913449002e-02  2.8976899572323273e-02  -2.0970205602876221e-03  3.1964360142762500e-02  -1.1171458886794947e-01  -9.4698866211821303e-02  3.2912860054734712e-02  -7.4422806922090565e-02  1.1713690711957497e-02  -4.8280486391940922e-02  3.2537287919138021e-02  2.6573994276483236e-02  -1.5930865606778374e-01  3.1363697812677678e-02  -2.4800822856906199e-02  -1.2185884092496266e-01  4.1976651757364092e-02  2.9636700260192057e-02  -1.8892978792922836e-03  5.9474291839038969e-02  7.0163796749748951e-03  2.7361266418784596e-02  1.4648044707171399e-02  7.6765298678336508e-02  -1.1573522666839853e-01  2.4606514312637835e-02  2.0209667574495868e-02  -1.0389258877272471e-01  2.4191572174150959e-02  2.1072505943513890e-02  -8.8162522688912670e-02  9.6965423382864832e-02  1.1098250765315144e-01  -1.2591201154110792e-02  1.7945349691898749e-02  1.4232871680968311e-02  2.6458749846643540e-02  -7.0506056333149728e-02  2.7275005524243456e-02  -1.4949238746565446e-01  -4.5472489764729347e-02  2.6447482600782994e-02  1.2843428512079655e-01  -2.5710891096029934e-02  1.0343671731284976e-02  2.3760227584123658e-02  -6.1343943188652793e-03  1.9693200559511997e-02  2.0737894432872071e-02  5.1407367216811439e-02  1.7042908393981336e-02  7.0368411278732446e-02  8.9145809813033647e-02  1.2777913536478242e-02  1.2074578935609422e-01  1.6135255154755177e-03  1.5357620282579679e-01  -1.6201750694620351e-01  8.1441165452626266e-03  5.7433572199613713e-03  1.3854839973363123e-01  -1.7344271009869655e-01  -1.6136706133881659e-01  -1.1766048249250952e-01  -5.7697422386758179e-02  6.1659251463474594e-03  3.1998601211199906e-02  1.3888852898310647e-01  -3.8926011877527367e-02  -6.3526442784849577e-02  -8.4693256176032308e-02  -1.0381322924386002e-01  8.7027773192821831e-02  2.7158562601043899e-02  6.7854604694110782e-02  1.0138736718685294e-01  2.5308249208383118e-02  2.2925031435715032e-02  5.0152716549611932e-02  2.5978732753082701e-02  2.8580197435744900e-02  3.4615310534072963e-02  3.0565452559159313e-02  3.2032357787568494e-02  3.2856760147198440e-02  3.2667798540918280e-02  -2.7588925482138916e-02  1.9025783803825677e-02  3.0779028600628963e-02  2.6603965480030252e-02  4.6409237055534472e-03  1.9263583787574780e-02  7.4578045307838164e-03  -8.1343352655123928e-03  1.3448221396267529e-03  -9.2791434704139423e-03  -2.1212822111827186e-02  1.5391604635715009e-01  -3.3369416485998733e-02  -4.5051180238490467e-02  -5.5825505590433352e-02  -6.6168764543560535e-02  -7.5917844521077679e-02  -8.5161267337353130e-02  -1.4826826929493148e-01  -9.6560428373286045e-02  -1.0745448732351430e-01  -1.1808149775247523e-01  -1.3417588819698273e-01  -1.2862346390797530e-01  -9.4918044923979566e-02  -1.1540691616073742e-01  -7.2803208095455527e-02  -4.9166289344040652e-02  -1.3902179886244401e-01  -1.5767505877638918e-01  1.6928940282763601e-03  1.5341936691951860e-01  4.5390947390212587e-03  -1.6179582118603328e-01  1.5416798875169621e-01  1.3704612942943655e-03  1.5006370840311817e-01  -1.6176421428335896e-01  -1.6142560998369671e-01  -1.6096630352922073e-01  -1.6146700615857057e-01  -1.6099008107736956e-01  -1.6181951471242764e-01  -1.6116137793584537e-01  -1.6227574265003356e-01  -1.6144691544082351e-01  -1.6259929435447168e-01  -1.6165169363993240e-01  -1.6252714516441058e-01  -1.6138433899665627e-01  -1.6189540155855014e-01  -1.6061541937515392e-01  -1.6080721012175078e-01  -1.5935197104634524e-01  -1.5931925342654479e-01  -1.5769399935328007e-01  -1.5725453916489360e-01  -1.5532847175976261e-01  -1.5893045668345696e-01  -1.5587017948834025e-01  -1.5311575856168760e-01  -1.5616885257612562e-01  -1.5811020051060048e-01  -1.5342579244148458e-01  -1.5053064872261943e-01  -1.5076406345458362e-01  -1.4750259628129980e-01  -1.4761998252549993e-01  -1.4403564471443503e-01  -1.4407271180606704e-01  -1.4041668176084737e-01  -1.4011955583354496e-01  -1.3572825633646438e-01  -1.3554152526717600e-01  -1.3133098787097658e-01  -1.3071950547957353e-01  -1.2634748033902501e-01  -1.2549730670285031e-01  -1.2103638270095836e-01  -1.1996097135762479e-01  -1.1545964404179719e-01  -1.1411886755068774e-01  -1.0964769246026135e-01  -1.0800522613548941e-01  -1.0361529381223497e-01  -1.0168490071947382e-01  -9.7443408726554659e-02  -9.5171371885973716e-02  -9.1169986771128128e-02  -8.8440986144901187e-02  -1.5424839493009429e-01  -1.5598957449227965e-01  -8.4811282784491529e-02  -8.1655337780647444e-02  -7.8452694884053792e-02  -7.5299528311600139e-02  -7.2185875155840851e-02  -6.8680866355037548e-02  -6.6019618042386652e-02  -6.2186421494006251e-02  -1.4938666555591198e-01  -6.0067516647883609e-02  -5.5808588932084180e-02  -5.4031915031471110e-02  -4.9565244545669525e-02  -4.8409758035070735e-02  -4.3605820248906663e-02  -1.5132198340102229e-01  -1.5317765168159772e-01  -1.6302731647464291e-01  -4.2933140418487392e-02  -3.7845213442588795e-02  -3.7736157427064550e-02  -3.2370902686049488e-02  -3.2799136280827861e-02  -2.7214576541131109e-02  -1.5936062691459743e-01  -2.8140620089358401e-02  -2.2343989916814494e-02  -1.3967372523510971e-01  -2.3746009077256221e-02  -1.7806207043449117e-02  -1.9646586702222114e-02  -1.3593304635680915e-02  -1.5759278083229061e-02  -9.6954509871988274e-03  -1.5998120118061790e-01  -1.2621128145601759e-01  -1.2208563408978865e-02  -6.1133994797009121e-03  -1.4743152611517885e-01  -1.4854736922504647e-01  -1.4592540693170911e-01  -1.1029860558502994e-01  -8.8503825317787221e-03  -2.6853179919629593e-03  -5.8371411416160797e-03  3.8713504330973165e-04  -2.9752506930392588e-03  3.0428118422945365e-03  -3.8630312505103903e-02  1.6200310179993112e-04  -2.1672198251390367e-02  -5.8040521600695241e-02  -3.2557843515155073e-04  5.4748816161345106e-03  8.8437258101183771e-03  1.1118181334102979e-02  7.7490637741784336e-03  1.3167321718713798e-02  9.8934182011902218e-03  1.5078229825461311e-02  1.1827037902727412e-02  1.6738394568373081e-02  1.3596956529446196e-02  1.8268231141008257e-02  1.5263119461483602e-02  1.9610542159223258e-02  1.6706021296946594e-02  2.0836797495626367e-02  1.8150075975640809e-02  2.2057656029581822e-02  1.9438712709304813e-02  2.3057448134625100e-02  2.0653709386124271e-02  2.3925293101573399e-02  2.1623794657846668e-02  2.4715726778752757e-02  -7.8210125577920370e-02  -9.3209790378645602e-02  2.2618029739740808e-02  2.5381943626243082e-02  2.3561324363746843e-02  2.6016756141477870e-02  -1.4687950662794874e-01  -1.1197018344134382e-01  2.4401140489063115e-02  2.6539856274142879e-02  -1.2918247889104575e-01  -7.5806815397208779e-02  -1.4262878346274460e-01  -1.4330305291099604e-01  -1.4995979132507070e-01  -1.4358148954569122e-01  -1.4909613720948042e-01  -1.4311837844692185e-01  -1.4887576130906302e-01  -1.4209632510514675e-01  -1.4605793775362785e-01  -1.4007601988360649e-01  -1.4411384175327838e-01  -1.3767822019442119e-01  -1.4018181339469896e-01  -1.3465099723005292e-01  -1.3647291215147836e-01  -1.3145896943036089e-01  -1.3266894273182417e-01  -1.2801820919969617e-01  -1.2882299932622759e-01  -1.2450662777726344e-01  -1.2495027576805100e-01  -1.2090530480082877e-01  -1.2109862550240960e-01  -1.1728258046512287e-01  -1.1726071963804145e-01  -1.1368605325974371e-01  -1.1311877519113138e-01  -1.0981199137074750e-01  -1.1002776700119148e-01  -1.0641500066874678e-01  -1.0612780115985684e-01  -1.0280457434648568e-01  -1.0253530256176532e-01  -9.9238513079272533e-02  -9.8714986457957732e-02  -9.5612948793464381e-02  -1.2944597725903181e-01  -1.0617024317947693e-01  -1.2002768474133567e-01  -9.5027323822277465e-02  -9.1909326316213902e-02  -9.2261688936419450e-02  -8.8727447378776483e-02  -8.8165377895966041e-02  -8.5111815151260692e-02  -8.4376933912280086e-02  -8.1442109340837232e-02  -8.0604159078812229e-02  -7.7716513563288597e-02  -8.4939410262051152e-02  -1.5416102474340534e-01  -1.4551389264606823e-01  -7.6892512414546629e-02  -7.3933874515138276e-02  -7.4718193352464296e-02  -7.0939624538531948e-02  -7.0127380145063423e-02  -6.7179647612834875e-02  -6.6264651967901864e-02  -6.3395144199047918e-02  -1.3727968706607865e-01  -6.7730383696704644e-02  -6.2425398909177782e-02  -5.9625007141435080e-02  -1.2890791388618061e-01  -5.8700290583405167e-02  -5.5799706505845634e-02  -5.6998603711252531e-02  -5.2851282483829601e-02  -5.1865357513269456e-02  -4.8803808925927838e-02  -4.9749645834487023e-02  -4.5702799122874165e-02  -4.4774259062420968e-02  -4.1665096941302660e-02  -4.0729544122554993e-02  -3.7534506184150454e-02  -3.8495873511675140e-02  -3.4367625159214751e-02  -3.3378240636556700e-02  -3.0235422722896886e-02  -2.9286264026756461e-02  -2.6121514859318452e-02  -1.3806921888055126e-01  -1.0577871268502313e-01  -1.2070394440409037e-01  -2.5267436386734309e-02  -2.2040080591211299e-02  -2.2906810851972447e-02  -1.8671414582270323e-02  -1.7810959351584922e-02  -1.4442292848167219e-02  -1.9537045471631695e-02  2.5067740087514175e-02  2.6975901832927432e-02  2.5675174132658674e-02  2.7344672772956255e-02  2.6217459760667538e-02  2.7642078162049583e-02  -8.7462918801570658e-02  -4.7968558704282356e-02  -1.6284425425717555e-01  -1.3550867822539951e-02  -1.0248909230371205e-02  -9.8016340050942077e-02  2.2694827106819821e-02  2.6810475758105221e-02  1.3953079595652161e-02  2.6668441677510802e-02  2.7858901872926365e-02  2.8920845718772962e-02  2.8916106090037464e-02  2.8001324068746666e-02  2.8859221922582560e-02  2.8076539688736857e-02  2.8743603665592116e-02  2.8069327728548411e-02  2.8561258098384827e-02  2.7989826264502450e-02  2.8320911317733562e-02  2.7826500502559394e-02  2.8009037456085278e-02  2.7586984119453865e-02  2.7637752678752996e-02  2.7274590818463510e-02  2.7205015796715960e-02  2.6892656115285133e-02  2.6713096203050044e-02  2.6430553763520593e-02  2.6146800505845443e-02  2.5886681758769695e-02  2.5529045037898178e-02  2.5265788285148211e-02  2.4824399600893460e-02  2.4584579749769943e-02  2.4079430392176169e-02  2.3808842978900270e-02  2.3248704223272770e-02  2.2978161094519896e-02  2.2370388242970746e-02  2.8572157037478976e-02  -3.5396306013431043e-02  -6.9248255565625097e-02  -9.2358968808834360e-03  -5.9463833128534744e-03  -6.9504710640450962e-03  -2.4962489983716583e-03  -3.5447475402481466e-03  1.0131703601747597e-03  1.9410468121343991e-03  5.4703996372741899e-03  6.5176577260652900e-03  1.0019662746443050e-02  9.0698282527750980e-03  1.3607366294987681e-02  1.4414808153368923e-02  1.8109532187054554e-02  1.8902717016566983e-