<?xml version="1.0"?>
<VTKFile type="UnstructuredGrid"  version="0.1"  >
<UnstructuredGrid>
<Piece  NumberOfPoints="2886" NumberOfCells="5412">
<Points>
<DataArray  type="Float64"  NumberOfComponents="3"  format="ascii">0 0.1 0  0.98 0.1 0  1 0.1 0  1 0 0  1.5 0 0  3 0 0  3 0.3 0  0 0.3 0  0.01975375321854102 0.1 0  0.03918897458218897 0.1 0  0.05831079002627837 0.1 0  0.07712425666319796 0.1 0  0.0956343475259058 0.1 0  0.1138459546796227 0.1 0  0.1317638870668193 0.1 0  0.1493928840275937 0.1 0  0.1667376092280033 0.1 0  0.1838026357802664 0.1 0  0.2005924801287244 0.1 0  0.2171115811543574 0.1 0  0.2333643037107681 0.1 0  0.2493549444060462 0.1 0  0.2650877293306821 0.1 0  0.2805668058011438 0.1 0  0.2957962848620976 0.1 0  0.3107801766802674 0.1 0  0.3255224447361181 0.1 0  0.3400269848175519 0.1 0  0.3542976327080778 0.1 0  0.3683381609158136 0.1 0  0.3821522744564845 0.1 0  0.3957436316838916 0.1 0  0.4091158196437086 0.1 0  0.4222723742184605 0.1 0  0.4352167733293057 0.1 0  0.4479524348643424 0.1 0  0.4604827295467524 0.1 0  0.4728109659990664 0.1 0  0.4849404035409129 0.1 0  0.4968742471455402 0.1 0  0.508615651843175 0.1 0  0.520167721130924 0.1 0  0.5315335063628542 0.1 0  0.5427160117228604 0.1 0  0.5537181940261912 0.1 0  0.564542961924507 0.1 0  0.575193173270606 0.1 0  0.5856716438765114 0.1 0  0.5959811458006617 0.1 0  0.6061243988680743 0.1 0  0.6161040893285659 0.1 0  0.6259228503970299 0.1 0  0.6355832809287655 0.1 0  0.6450879281079505 0.1 0  0.6544393102991295 0.1 0  0.663639896558931 0.1 0  0.6726921201956305 0.1 0  0.6815983691630338 0.1 0  0.6903610031396646 0.1 0  0.6989823343332418 0.1 0  0.7074646404270378 0.1 0  0.7158101645005117 0.1 0  0.7240211149852543 0.1 0  0.7320996585612525 0.1 0  0.7400479319727645 0.1 0  0.7478680336617921 0.1 0  0.755562036504958 0.1 0  0.7631319665092091 0.1 0  0.7705798279317605 0.1 0  0.777907588066146 0.1 0  0.7851171851013118 0.1 0  0.7922105226004981 0.1 0  0.7991894774550319 0.1 0  0.8060558928136696 0.1 0  0.812811583201334 0.1 0  0.8194583352091183 0.1 0  0.8259979035038147 0.1 0  0.8324320194413813 0.1 0  0.8387623808293405 0.1 0  0.8449906627004957 0.1 0  0.8511185094880469 0.1 0  0.8571475426008311 0.1 0  0.8630793533568246 0.1 0  0.8689155114558531 0.1 0  0.8746575581239063 0.1 0  0.8803070109173519 0.1 0  0.885865363938836 0.1 0  0.8913340851680313 0.1 0  0.8967146206523592 0.1 0  0.9020083930695622 0.1 0  0.9072167995950768 0.1 0  0.9123412183131177 0.1 0  0.9173830029719022 0.1 0  0.9223434865647732 0.1 0  0.9272239785872722 0.1 0  0.9320257720706087 0.1 0  0.9367501330378739 0.1 0  0.9413983102716995 0.1 0  0.9459715351562933 0.1 0  0.9504710127113115 0.1 0  0.9548979346500661 0.1 0  0.9592534708344373 0.1 0  0.9635387708980176 0.1 0  0.9677549682252325 0.1 0  0.971903177251235 0.1 0  0.9759844952956497 0.1 0  0.9840000000000086 0.1 0  0.987999999999974 0.1 0  0.9919999999999393 0.1 0  0.9959999999999913 0.1 0  1 0.09591793123533533 0  1 0.09133596463859224 0  1 0.08619288104391448 0  1 0.08041996484521211 0  1 0.07394008421771697 0  1 0.06666666567302955 0  1 0.05850252932209174 0  1 0.04933859630113544 0  1 0.03905242821848202 0  1 0.02750659386753798 0  1 0.01454683679239736 0  1.015625 0 0  1.03125 0 0  1.046875 0 0  1.0625 0 0  1.078125 0 0  1.09375 0 0  1.109375 0 0  1.125 0 0  1.140625 0 0  1.15625 0 0  1.171875 0 0  1.1875 0 0  1.203125 0 0  1.21875 0 0  1.234375 0 0  1.25 0 0  1.265625 0 0  1.28125 0 0  1.296875 0 0  1.3125 0 0  1.328125 0 0  1.34375 0 0  1.359375 0 0  1.375 0 0  1.390625 0 0  1.40625 0 0  1.421875 0 0  1.4375 0 0  1.453125 0 0  1.46875 0 0  1.484375 0 0  1.515920751924515 0 0  1.531989369316721 0 0  1.54820720925872 0 0  1.564575665560501 0 0  1.581096138674279 0 0  1.597770029901263 0 0  1.614598783332311 0 0  1.631583831055205 0 0  1.64872661129721 0 0  1.666028606716533 0 0  1.683491276608443 0 0  1.701116134125304 0 0  1.718904673324128 0 0  1.736858414799339 0 0  1.754978895814663 0 0  1.773267661782904 0 0  1.791726281103402 0 0  1.810356325314689 0 0  1.8291593848892 0 0  1.848137076690385 0 0  1.867291007717254 0 0  1.886622833871288 0 0  1.90613418642363 0 0  1.925826753299799 0 0  1.945702199101513 0 0  1.96576223584749 0 0  1.986008569283268 0 0  2.006442931928877 0 0  2.02706707547783 0 0  2.047882750887917 0 0  2.06889175187935 0 0  2.090095860038271 0 0  2.111496891648636 0 0  2.133096679109554 0 0  2.154897066851056 0 0  2.176899916687499 0 0  2.199107102752146 0 0  2.22152053937028 0 0  2.244142122958061 0 0  2.266973806444078 0 0  2.290017523268154 0 0  2.313275249499252 0 0  2.336748971745516 0 0  2.360440702338606 0 0  2.384352453384031 0 0  2.408486280477412 0 0  2.432844240041185 0 0  2.457428414757088 0 0  2.482240901796653 0 0  2.507283830121838 0 0  2.532559332080812 0 0  2.558069568787417 0 0  2.583816724966441 0 0  2.60980299606584 0 0  2.636030600971886 0 0  2.662501790984011 0 0  2.689218818279327 0 0  2.716183964547616 0 0  2.743399548861297 0 0  2.77086788244719 0 0  2.798591312896326 0 0  2.826572223178268 0 0  2.854812990138617 0 0  2.883316031690714 0 0  2.912083780657189 0 0  2.941118704633482 0 0  2.970423276998917 0 0  3 0.02999999999994495 0  3 0.05999999999987042 0  3 0.089999999999783 0  3 0.119999999999701 0  3 0.149999999999619 0  3 0.179999999999692 0  3 0.2099999999997737 0  3 0.2399999999998511 0  3 0.2699999999999185 0  2.970138294777171 0.3 0  2.940375666438236 0.3 0  2.910711782853056 0.3 0  2.881146331305122 0.3 0  2.851678975030285 0.3 0  2.822309388626621 0.3 0  2.793037250095074 0.3 0  2.76386223529133 0.3 0  2.734784017903872 0.3 0  2.705802289276642 0.3 0  2.676916713794697 0.3 0  2.648126987654635 0.3 0  2.619432780406184 0.3 0  2.590833779385199 0.3 0  2.562329669847737 0.3 0  2.533920134950189 0.3 0  2.505604855727852 0.3 0  2.477383539822502 0.3 0  2.449255847639465 0.3 0  2.421221492569094 0.3 0  2.393280152486815 0.3 0  2.36543151914496 0.3 0  2.337675285481809 0.3 0  2.310011142385583 0.3 0  2.282438797441587 0.3 0  2.254957931061538 0.3 0  2.227568248063605 0.3 0  2.200269436651085 0.3 0  2.173061204949961 0.3 0  2.145943251515011 0.3 0  2.118915272469994 0.3 0  2.091976978084957 0.3 0  2.065128060700849 0.3 0  2.038368218849433 0.3 0  2.01169717777258 0.3 0  1.985114624111908 0.3 0  1.958620267850966 0.3 0  1.93221382054972 0.3 0  1.905894991850698 0.3 0  1.879663489459713 0.3 0  1.853519019126419 0.3 0  1.827461291053897 0.3 0  1.801490031354372 0.3 0  1.775604937580312 0.3 0  1.74980572560258 0.3 0  1.724092118631866 0.3 0  1.698463829173586 0.3 0  1.672920575782554 0.3 0  1.647462076974085 0.3 0  1.622088043536933 0.3 0  1.5967981978949 0.3 0  1.571592267767068 0.3 0  1.546469970305736 0.3 0  1.521431023814044 0.3 0  1.496475156230927 0.3 0  1.471602093687753 0.3 0  1.446811560490646 0.3 0  1.422103279101731 0.3 0  1.397476971708191 0.3 0  1.37293238939876 0.3 0  1.348469231419202 0.3 0  1.324087248732772 0.3 0  1.299786165921677 0.3 0  1.275565710847046 0.3 0  1.251425617644257 0.3 0  1.227365618676339 0.3 0  1.203385446174014 0.3 0  1.179484853067473 0.3 0  1.155663548773374 0.3 0  1.131921292279077 0.3 0  1.108257802159295 0.3 0  1.084672829009693 0.3 0  1.061166115303374 0.3 0  1.037737392995421 0.3 0  1.01438640299116 0.3 0  0.991112899770314 0.3 0  0.9679166155523955 0.3 0  0.944797284182564 0.3 0  0.921754678526042 0.3 0  0.8987885143602501 0.3 0  0.8758985548820624 0.3 0  0.8530845484099929 0.3 0  0.8303462351786988 0.3 0  0.8076833651172373 0.3 0  0.7850956864865304 0.3 0  0.7625829601354557 0.3 0  0.7401449314598274 0.3 0  0.717781337993959 0.3 0  0.6954919649675473 0.3 0  0.6732765357561226 0.3 0  0.6511348120768439 0.3 0  0.6290665642016573 0.3 0  0.6070715355430467 0.3 0  0.5851494825775325 0.3 0  0.5633001690203812 0.3 0  0.5415233562273221 0.3 0  0.5198187909431873 0.3 0  0.4981862401387795 0.3 0  0.4766254686134248 0.3 0  0.4551362360485234 0.3 0  0.4337182975262159 0.3 0  0.4123714223228037 0.3 0  0.3910953802377493 0.3 0  0.3698899313205595 0.3 0  0.3487548463710963 0.3 0  0.3276898864081783 0.3 0  0.3066948129116018 0.3 0  0.2857694003037476 0.3 0  0.2649134227095047 0.3 0  0.2441266417321288 0.3 0  0.2234088223399122 0.3 0  0.2027597568977288 0.3 0  0.1821792020676698 0.3 0  0.1616669305402443 0.3 0  0.1412227158799362 0.3 0  0.12084633013886 0.3 0  0.1005375673448281 0.3 0  0.08029618164595353 0.3 0  0.06012194778526769 0.3 0  0.04001466495039718 0.3 0  0.01997408913631205 0.3 0  0 0.2800000000000553 0  0 0.2600000000001105 0  0 0.2400000000001658 0  0 0.2200000000002211 0  0 0.2000000000002764 0  0 0.1800000000002244 0  0 0.1600000000001691 0  0 0.140000000000115 0  0 0.1200000000000564 0  1.13346801534201 0.01255848438672509 0  1.003577645172735 0.09351054173913405 0  0.9777559943702486 0.1034978156913738 0  0.9524533750752109 0.1040889939962738 0  0.9296242411226409 0.1041520033606139 0  0.9046110503652111 0.104409422380137 0  0.8777709649694228 0.1053360318797398 0  0.8483859145648608 0.1061007868330701 0  0.8162363822948977 0.1052777104363292 0  0.7893110024210437 0.1060761643971561 0  0.7587949382612539 0.1067265405088633 0  0.7280603867732535 0.1069398153264939 0  0.6947001989413015 0.1075609887579097 0  0.6590363283767549 0.1076715322596598 0  0.6210028614493155 0.1072970410408442 0  1.1953125 0.01353164693413185 0  1.258193991486058 0.01269648635163345 0  1.3201967268638 0.01407907077719561 0  1.383538555392096 0.01434101079053473 0  1.445312500000001 0.01303671693628424 0  1.508925448095738 0.01398525724792267 0  0.9939176689634008 0.1034638089837981 0  1.120967497222226 0.2796788492172345 0  1.572835902117391 0.01424132418857359 0  1.637573277451887 0.01212536916586023 0  1.709730776795181 0.01466855431023635 0  1.005631976950563 0.07074019818158772 0  1.784944696816299 0.01454708406461822 0  0.5805605730631225 0.1101465090472147 0  1.855621181165637 0.01550931272897607 0  0.5366111276616774 0.1096761308243709 0  1.935200147913231 0.01760344159641829 0  1.214922267975168 0.2799787705802257 0  1.31178773425331 0.2792
[...]
<PointData  Scalars="pressure"> 
<DataArray  type="Float64"  Name="pressure"  format="ascii">1.6204295645766892e-01  -1.6478564405439186e-01  -2.2000288227322556e-01  -1.6336418385020438e-01  -4.3707361674580371e-02  0.0000000000000000e+00  0.0000000000000000e+00  1.6204930266976453e-01  1.5611683379921165e-01  1.5028620866737427e-01  1.4454951771992092e-01  1.3890523711200389e-01  1.3335185596296845e-01  1.2788789640965792e-01  1.2251192287197207e-01  1.1722247066830215e-01  1.1201814379536162e-01  1.0689755576868999e-01  1.0185930743963938e-01  9.6902051500405220e-02  9.2024474134150630e-02  8.7225221492476440e-02  8.2502999248488848e-02  7.7856589221036984e-02  7.3284615437325742e-02  6.8785883845038337e-02  6.4359159036476779e-02  6.0003157152480058e-02  5.5716715742862542e-02  5.1498705163742303e-02  4.7347804882756910e-02  4.3262932657279811e-02  3.9242827174026176e-02  3.5286394771361591e-02  3.1392591643656667e-02  2.7560177906855509e-02  2.3787994897635549e-02  2.0075001893755370e-02  1.6420087292017556e-02  1.2822086732774567e-02  9.2800131905968111e-03  5.7926697353932084e-03  2.3590478731267670e-03  -1.0219953571463181e-03  -4.3515110504958555e-03  -7.6302039875843983e-03  -1.0859777175246502e-02  -1.4040877186818051e-02  -1.7174582681325282e-02  -2.0262121897807513e-02  -2.3304490235771955e-02  -2.6302173378440465e-02  -2.9257079157999868e-02  -3.2169727350604138e-02  -3.5041200142281806e-02  -3.7872589790604684e-02  -4.0664860321684239e-02  -4.3419024849134208e-02  -4.6136214867261986e-02  -4.8817340535879494e-02  -5.1463339536022570e-02  -5.4075136239235475e-02  -5.6654207760997513e-02  -5.9200971261585904e-02  -6.1716629158523786e-02  -6.4201838526926125e-02  -6.6658463138759783e-02  -6.9086957286672662e-02  -7.1487604149226794e-02  -7.3862016068103345e-02  -7.6211657449177836e-02  -7.8536326930433178e-02  -8.0837918057796679e-02  -8.3117137729284737e-02  -8.5374296563057159e-02  -8.7610854685326811e-02  -8.9827664624201345e-02  -9.2025595072510805e-02  -9.4206236756517986e-02  -9.6369711778356265e-02  -9.8516493993460560e-02  -1.0064718684838211e-01  -1.0276486224457575e-01  -1.0486876090139959e-01  -1.0695949840231200e-01  -1.0903874163382977e-01  -1.1110683849435223e-01  -1.1316462343840013e-01  -1.1521303591862087e-01  -1.1725368017270436e-01  -1.1928692985573730e-01  -1.2131289975748911e-01  -1.2333353074435380e-01  -1.2534946413648848e-01  -1.2736150649985123e-01  -1.2937059376278209e-01  -1.3137749659870321e-01  -1.3338325508471099e-01  -1.3538884123883235e-01  -1.3739524765562153e-01  -1.3940306506098901e-01  -1.4141326595235140e-01  -1.4342175493477391e-01  -1.4540491393083699e-01  -1.4775245067221379e-01  -1.4801111701913522e-01  -1.5058093848028173e-01  -1.4382041834869014e-01  -1.4942428304369232e-01  -1.4878462914604593e-01  -2.0589779324059559e-01  -1.8388358150429052e-01  -1.7721998847967710e-01  -1.7239795568299388e-01  -1.6915448612293499e-01  -1.6672540856174781e-01  -1.6490978445784024e-01  -1.6358367423449047e-01  -1.6279110792458767e-01  -1.6260230913133822e-01  -1.6301243156389289e-01  -1.6380458771321249e-01  -1.6418283941166464e-01  -1.6398299278060521e-01  -1.6332044594943662e-01  -1.6228630746039741e-01  -1.6092480176215487e-01  -1.5922155008164157e-01  -1.5716420115162602e-01  -1.5478178302662751e-01  -1.5209156397250670e-01  -1.4909751203663096e-01  -1.4581310749907572e-01  -1.4224910163391333e-01  -1.3841719873953529e-01  -1.3433718813798462e-01  -1.3002138458106047e-01  -1.2548157878813190e-01  -1.2073535059065009e-01  -1.1580075988741287e-01  -1.1068744134368461e-01  -1.0542471571997826e-01  -1.0002956824331176e-01  -9.4517148440685150e-02  -8.8917168326986568e-02  -8.3247403782081467e-02  -7.7535953183585735e-02  -7.1804650161542319e-02  -6.6075377231900059e-02  -6.0379087449585471e-02  -5.4736128453963938e-02  -4.9172076627724777e-02  -3.8265621681899141e-02  -3.2931942844838503e-02  -2.7715676245698359e-02  -2.2651201537611434e-02  -1.7766108854215847e-02  -1.3062178954347810e-02  -8.5682485087972046e-03  -4.2899738622257239e-03  -2.7619445580692498e-04  3.4956082632374192e-03  7.0233808699132136e-03  1.0285221717373222e-02  1.3282424709734033e-02  1.6020648830633151e-02  1.8502782102710814e-02  2.0733049128524292e-02  2.2725856785948982e-02  2.4480858452866069e-02  2.6012175444124892e-02  2.7349538185469240e-02  2.8481101648033261e-02  2.9436870655282207e-02  3.0230264450136941e-02  3.0869384141583307e-02  3.1375603547758459e-02  3.1753521912515278e-02  3.2034808972624507e-02  3.2209788658366344e-02  3.2300013952742478e-02  3.2310568150747954e-02  3.2249549429992613e-02  3.2126818965051325e-02  3.1952052477263591e-02  3.1729654031225830e-02  3.1460504308473622e-02  3.1152228263157375e-02  3.0805680426234324e-02  3.0423854448055336e-02  3.0008005563243335e-02  2.9558701403313778e-02  2.9076463820194184e-02  2.8561338943701546e-02  2.8012144268051674e-02  2.7429322060017251e-02  2.6810368482021119e-02  2.6154002761320697e-02  2.5461478611494271e-02  2.4727888870246753e-02  2.3951274259287988e-02  2.3136140173936798e-02  2.2272831362258039e-02  2.1368544468903052e-02  2.0412666544397443e-02  1.9414184225364464e-02  1.8365203831883611e-02  1.7261963504169003e-02  1.6114971093080497e-02  1.4909949545333373e-02  1.3658353347348882e-02  1.2354010948548419e-02  1.0995898796838571e-02  9.5839653880071957e-03  8.1203199945270779e-03  6.6081925526462228e-03  5.0381059788459966e-03  3.4276366244848544e-03  1.7605755426636663e-03  0.0000000000000000e+00  0.0000000000000000e+00  0.0000000000000000e+00  0.0000000000000000e+00  0.0000000000000000e+00  0.0000000000000000e+00  0.0000000000000000e+00  0.0000000000000000e+00  0.0000000000000000e+00  1.9092987016369131e-03  3.6905341424940162e-03  5.4436833081450064e-03  7.1432219074946271e-03  8.7929210062166283e-03  1.0391419099354211e-02  1.1937715674668845e-02  1.3430031537214390e-02  1.4865429820021642e-02  1.6241612687345475e-02  1.7554494628989312e-02  1.8801502568461314e-02  1.9977488647119564e-02  2.1079370206326650e-02  2.2102252295395138e-02  2.3039418517437439e-02  2.3890483126203323e-02  2.4644187471460105e-02  2.5295829903206075e-02  2.5839223937693449e-02  2.6267448796571953e-02  2.6573906316901316e-02  2.6752865919573602e-02  2.6793501971873180e-02  2.6694575887736931e-02  2.6444031393823689e-02  2.6039981654863379e-02  2.5471117171313118e-02  2.4732407922060211e-02  2.3821356467836813e-02  2.2727259563162190e-02  2.1444802075266237e-02  1.9989160858218558e-02  1.8346222563610591e-02  1.6489811442150424e-02  1.4460198853182020e-02  1.2234873359022135e-02  9.8140555148053862e-03  7.1996772952956358e-03  4.3992012173862203e-03  1.4039529682334244e-03  -1.7720241152174470e-03  -5.1374923825785240e-03  -8.6815873552570037e-03  -1.2415742415544060e-02  -1.6323096732679846e-02  -2.0405389169466256e-02  -2.4652342036580951e-02  -2.9067773552012573e-02  -3.3636654374121812e-02  -3.8355460669138725e-02  -4.3212056290400841e-02  -4.8191660958848817e-02  -5.3284966829575481e-02  -5.8475589126056125e-02  -6.3737912895347568e-02  -6.9008513360007531e-02  -7.4339052222658533e-02  -7.9638423679396983e-02  -8.4843681582963473e-02  -8.9960273757199657e-02  -9.4913402438310687e-02  -9.9682417678730151e-02  -1.0415876864007774e-01  -1.0833419461978330e-01  -1.1209665865508937e-01  -1.1543368421908541e-01  -1.1823153667069124e-01  -1.2049524868070995e-01  -1.2209152032290424e-01  -1.2303779721988946e-01  -1.2326606644334134e-01  -1.2265587512971458e-01  -1.2138464653206960e-01  -1.1933380217039176e-01  -1.1652270296073164e-01  -1.1307873614982550e-01  -1.0903586208676891e-01  -1.0452027204809219e-01  -9.9602172152917334e-02  -9.4286304356298409e-02  -8.8699789126778006e-02  -8.2879953160474334e-02  -7.6910788802790009e-02  -7.0796995084539349e-02  -6.4564030749280799e-02  -5.8258952777528239e-02  -5.1893527303501268e-02  -4.5477776933235584e-02  -3.9032774592637202e-02  -3.2563101448802992e-02  -2.6085085162972508e-02  -1.9601328702190762e-02  -1.3114139502277656e-02  -6.6336793768558763e-03  -1.6104256558160273e-04  6.3026878620122614e-03  1.2754433294768353e-02  1.9191450845149196e-02  2.5612721767066852e-02  3.2017791130383270e-02  3.8405310139881757e-02  4.4775117552983378e-02  5.1125798707843603e-02  5.7457673149387913e-02  6.3770108756888100e-02  7.0062873107799364e-02  7.6335889728658415e-02  8.2588893979249067e-02  8.8821850101553468e-02  9.5034735456853842e-02  1.0122747229558349e-01  1.0740004605103502e-01  1.1355246499689860e-01  1.1968474721279301e-01  1.2579688202046874e-01  1.3188893914997310e-01  1.3796094562900757e-01  1.4401293504424889e-01  1.5004496240171125e-01  1.5605706725870305e-01  1.6204927813900208e-01  1.6204901431595137e-01  1.6204837009561912e-01  1.6204735889511299e-01  1.6204613065397575e-01  1.6204490114573730e-01  1.6204388783198420e-01  1.6204323931863845e-01  1.6204297644224336e-01  -1.5561127170764608e-01  -1.8862099037342275e-01  -1.5138192170209894e-01  -1.3840827809890469e-01  -1.2845101138363449e-01  -1.1833653106121289e-01  -1.0816479949678336e-01  -9.7607423745606853e-02  -8.6557997557646121e-02  -7.7612549321916760e-02  -6.7716056980375000e-02  -5.7943097643030891e-02  -4.7497740669305469e-02  -3.6464336352054240e-02  -2.4805527528003041e-02  -1.4388703023894647e-01  -1.2762371578013126e-01  -1.0818747263212281e-01  -8.6013400371758530e-02  -6.3488336440949686e-02  -4.1004981018406161e-02  -1.6302075214458076e-01  -1.2201343480875089e-01  -2.0591833416067750e-02  -3.2341727307756288e-03  1.1368966412613009e-02  -1.6864849081154593e-01  2.1674943560843409e-02  -1.2494055139502599e-02  2.7517754452918874e-02  8.2086705964858921e-04  3.0891459401372671e-02  -1.1320173345575661e-01  -9.6658781726085358e-02  3.2137882700575722e-02  -7.6544679749055947e-02  1.4621584531175737e-02  -5.0324243317391965e-02  3.1946205254444630e-02  2.9475098522163515e-02  -1.6112260172536150e-01  3.0904468273304030e-02  -2.6618579569143184e-02  -1.2155392555053371e-01  4.4873395245320177e-02  2.9264522304510862e-02  -3.3905484811799051e-03  6.2368113876577459e-02  5.6668310441028713e-03  2.7054014893117900e-02  1.3454833954085824e-02  7.9657477641278729e-02  -1.1452726048568282e-01  2.4351462608313331e-02  1.9160443744493817e-02  -1.0196491986384081e-01  2.3286592086917891e-02  2.0869913659472668e-02  -8.5791949165164735e-02  9.9856560120171647e-02  1.1387324586005186e-01  -1.4252236020555845e-02  1.7782293985872458e-02  1.4111492367927638e-02  2.5687023624097222e-02  -6.7891942864650334e-02  2.6671880260053769e-02  -1.4439400014053330e-01  -4.2700684028039337e-02  2.5954454578554383e-02  1.3132475331530660e-01  -2.2882473614403393e-02  1.0260945243572602e-02  2.3397626525207018e-02  -3.2769135170392458e-03  2.2569122930205521e-02  2.0460410229248629e-02  5.4292293401875823e-02  1.6839668765467136e-02  7.3255646357137758e-02  9.2034272084950047e-02  1.2639981469303854e-02  1.2363515104632862e-01  1.5991864936478798e-03  1.5646609591047278e-01  -1.6379003952849475e-01  8.0631951492603979e-03  5.7010128319620089e-03  1.4143793397436480e-01  -1.7525863609522205e-01  -1.6315838499972557e-01  -1.1876897151693187e-01  -5.4985279456229448e-02  9.0341446796548402e-03  3.4879117022384637e-02  1.4177891749737806e-01  -4.0894005675791163e-02  -6.5644611549121781e-02  -8.6767510061406011e-02  -1.0558471698710492e-01  8.9919333881253893e-02  2.6471298046652034e-02  7.0747516603714741e-02  1.0427630205319202e-01  2.4883134906253379e-02  2.2696300023723796e-02  5.3047891597206971e-02  2.5699851232856740e-02  2.8241960210634159e-02  3.7513880483352670e-02  3.0153767562927931e-02  3.1514331158375708e-02  3.2173113775575524e-02  3.1760658618198712e-02  -3.0683151095237480e-02  2.1929938885269520e-02  2.9522968565898346e-02  2.4938405323015184e-02  7.5534170329195566e-03  1.7142155873934323e-02  4.8820219589046513e-03  -1.1048126026342892e-02  1.3344810701496511e-03  -6.3540586761914779e-03  -1.8271541778424636e-02  1.5680622679335790e-01  -3.0403941068125752e-02  -4.2052323042068046e-02  -5.2783280679145499e-02  -6.3069435954999198e-02  -7.2746808668422341e-02  -8.1901344386429265e-02  -1.5021227170779100e-01  -9.3155251337547956e-02  -1.0386370718171610e-01  -1.1425222259484973e-01  -1.3631101475825788e-01  -1.2448562973440995e-01  -9.7598936360576788e-02  -1.1781003385317551e-01  -7.5732709785236996e-02  -5.2258295178618540e-02  -1.3447920602037663e-01  -1.4944457365823655e-01  1.6773788442137881e-03  1.5630901639614073e-01  4.4961980955762959e-03  -1.6357771921758929e-01  1.5705832202909134e-01  1.3611642773460491e-03  1.5295328201422531e-01  -1.6354966253558667e-01  -1.6321300050780715e-01  -1.6275951425411500e-01  -1.6325485918987973e-01  -1.6278346986618683e-01  -1.6360751507738064e-01  -1.6295553312297387e-01  -1.6406510806112756e-01  -1.6324249284264711e-01  -1.6439197622200138e-01  -1.6345062033505250e-01  -1.6432473052255314e-01  -1.6318925248839250e-01  -1.6369693070343880e-01  -1.6242644645585719e-01  -1.6260513753955891e-01  -1.6116340726705039e-01  -1.6109901334718060e-01  -1.5949199240375786e-01  -1.5898600926106243e-01  -1.5709759178573474e-01  -1.6062093691647639e-01  -1.5769962352591207e-01  -1.5492365747845027e-01  -1.5776478261004681e-01  -1.5962725550992382e-01  -1.5528230947532187e-01  -1.5237908597386438e-01  -1.5265708747145890e-01  -1.4939561005691618e-01  -1.4955475313147218e-01  -1.4597531658848126e-01  -1.4605527584319913e-01  -1.4241249916407681e-01  -1.4215666542580771e-01  -1.3778241055982052e-01  -1.3764015197244456e-01  -1.3345253938504933e-01  -1.3288429215953401e-01  -1.2853657992823125e-01  -1.2773307558615787e-01  -1.2329448951784219e-01  -1.2227026782130104e-01  -1.1778695158160160e-01  -1.1650276854696816e-01  -1.1204296973797173e-01  -1.1046341003773907e-01  -1.0607421213999263e-01  -1.0421422742690706e-01  -9.9961412573519787e-02  -9.7763495280648316e-02  -9.3739209619317712e-02  -9.1100142240041843e-02  -1.5562378550686076e-01  -1.5720686604429437e-01  -8.7419008969744097e-02  -8.4358869275323933e-02  -8.1094366103426560e-02  -7.8040119739954922e-02  -7.4842354823109247e-02  -7.1446616698692678e-02  -6.8679801002621110e-02  -6.4962849296142697e-02  -1.5116040399675074e-01  -6.2720757190445398e-02  -5.8581704762520115e-02  -5.6638187557813531e-02  -5.2315569716101684e-02  -5.1003254558824575e-02  -4.6324581592346155e-02  -1.5239141254387251e-01  -1.5397651881101898e-01  -1.6482229026747205e-01  -4.5476890595249363e-02  -4.0515996574901451e-02  -4.0220431569549853e-02  -3.4979230347833998e-02  -3.5213638722683523e-02  -2.9749283319301607e-02  -1.6069478893081846e-01  -3.0476922595465306e-02  -2.4793668820798448e-02  -1.4159352347920401e-01  -2.5996986432039688e-02  -2.0162665133968815e-02  -2.1808643529609584e-02  -1.5850611988314740e-02  -1.7832322456810143e-02  -1.1849259796235880e-02  -1.6179713834001727e-01  -1.2833387537609325e-01  -1.4189059886215166e-02  -8.1620990986777438e-03  -1.4812766068501670e-01  -1.4891664531221546e-01  -1.4687879737288548e-01  -1.1262174707096725e-01  -1.0739742886317004e-02  -4.6286858583789456e-03  -7.6352380138545286e-03  -1.4516211171132724e-03  -4.6870568783066203e-03  1.3043672346739203e-03  -4.1465273287131565e-02  -1.9571457276828228e-03  -2.4319930110982050e-02  -6.0919863447551792e-02  -1.9561874365140847e-03  3.8315164932384714e-03  7.0725345434030093e-03  9.4538648453117054e-03  6.1947033636455262e-03  1.1603620376031635e-02  8.4216901668360874e-03  1.3610822154803930e-02  1.0433121095443055e-02  1.5362833426907746e-02  1.2275467683670714e-02  1.6975451913049607e-02  1.4008116589410024e-02  1.8394537994269568e-02  1.5511712019336347e-02  1.9690139685361548e-02  1.7012554665596039e-02  2.0976041381905709e-02  1.8353859599860807e-02  2.2034127526355821e-02  1.9617073954072205e-02  2.2955927448370262e-02  2.0630296603796106e-02  2.3794959840733852e-02  -8.0993523677544990e-02  -9.5681163834762425e-02  2.1666106990488720e-02  2.4505997137714144e-02  2.2649786469595073e-02  2.5181749577405654e-02  -1.4883888756680291e-01  -1.1440236827285472e-01  2.3528274081476570e-02  2.5743838370743587e-02  -1.3138142967702360e-01  -7.8362916878801203e-02  -1.4295240500477954e-01  -1.4324520625116258e-01  -1.4985964930498763e-01  -1.4304860367782229e-01  -1.4836951026368139e-01  -1.4206406891020520e-01  -1.4744200123715531e-01  -1.4048798235753046e-01  -1.4400054706478305e-01  -1.3796767457974660e-01  -1.4149646062322124e-01  -1.3514568768571850e-01  -1.3715472743137502e-01  -1.3179875347829012e-01  -1.3317847333953403e-01  -1.2837928430716650e-01  -1.2922178571372842e-01  -1.2479594554445488e-01  -1.2529966194042258e-01  -1.2120380390763243e-01  -1.2140311926692599e-01  -1.1756377002931556e-01  -1.1755694438552172e-01  -1.1392785037763339e-01  -1.1374242545038839e-01  -1.1033432923692642e-01  -1.0963958953234083e-01  -1.0648682239460323e-01  -1.0684545546361840e-01  -1.0322818744865093e-01  -1.0281850337283306e-01  -9.9618958436900523e-02  -9.9235298329747715e-02  -9.6056455675912381e-02  -9.5441588101710495e-02  -9.2442735472008444e-02  -1.2684479586127817e-01  -1.0314892432551526e-01  -1.1693474094607016e-01  -9.1779051009325291e-02  -8.8752025447171992e-02  -8.9196945989062040e-02  -8.5662566381885977e-02  -8.5021451400926845e-02  -8.2046069672683353e-02  -8.1247503200252716e-02  -7.8380666185862508e-02  -7.7489877635914292e-02  -7.4664464304232264e-02  -8.1955964025161490e-02  -1.5318504320872070e-01  -1.4225988925157362e-01  -7.3793403107959635e-02  -7.0889512042485614e-02  -7.1727422168083144e-02  -6.7950462835795256e-02  -6.7090401414866038e-02  -6.4190287548511693e-02  -6.3236128486659118e-02  -6.0408371667971604e-02  -1.3354137562979293e-01  -6.4790841314237305e-02  -5.9405540545375321e-02  -5.6640921562089629e-02  -1.2513919908097640e-01  -5.5688873631416926e-02  -5.2820231203935294e-02  -5.4050038824445722e-02  -4.9903553432804969e-02  -4.8890181654725473e-02  -4.5855999992887815e-02  -4.6833063750411255e-02  -4.2781850266426967e-02  -4.1826913802480381e-02  -3.8741134972645995e-02  -3.7783419946961112e-02  -3.4608632471244093e-02  -3.5593736506927487e-02  -3.1460723216870053e-02  -3.0451458821007502e-02  -2.7325190451079048e-02  -2.6359674069458074e-02  -2.3209301390904605e-02  -1.3725326983239489e-01  -1.0236245872024276e-01  -1.1702937678041009e-01  -2.2341603614272620e-02  -1.9126669624780060e-02  -2.0008016409593380e-02  -1.5769715616981629e-02  -1.4897147421835963e-02  -1.1538383030127688e-02  -1.6650209243169050e-02  2.4228568456090397e-02  2.6214516469265269e-02  2.4869323310402414e-02  2.6617073872456043e-02  2.5444469476236835e-02  2.6946199178617923e-02  -8.4261774711785545e-02  -5.0379811695594225e-02  -1.6462945053873157e-01  -1.0637115098566966e-02  -7.3437517090279344e-03  -9.4679513656496489e-02  2.1426984614036790e-02  2.5900236588484712e-02  1.2153595497377942e-02  2.5927813987377833e-02  2.7193256820297600e-02  2.8298824161670542e-02  2.8322174639641762e-02  2.7364554514307211e-02  2.8292330208156732e-02  2.7468298667451409e-02  2.8202718483570186e-02  2.7488445230986917e-02  2.8044357111167813e-02  2.7435899520369511e-02  2.7827734261124764e-02  2.7298602905811886e-02  2.7538676122094950e-02  2.7084093079691611e-02  2.7189733334238183e-02  2.6796705381620142e-02  2.6778787996496037e-02  2.6439531237052068e-02  2.6308595318133250e-02  2.6002432058647343e-02  2.5763448765820256e-02  2.5482683071403583e-02  2.5166871809415021e-02  2.4884886621926700e-02  2.4482587774897001e-02  2.4227071980527336e-02  2.3758218640265019e-02  2.3475331117003537e-02  2.2947651885395062e-02  2.2665241341687486e-02  2.2089186636800637e-02  2.7851514773310822e-02  -3.2513228305883622e-02  -6.6173460553734284e-02  -6.3226577755052899e-03  -3.0405949593838490e-03  -4.0534138660869813e-03  4.0249774587521053e-04  -6.5496310740216892e-04  3.9055940939034467e-03  4.8409853968711981e-03  8.3647561442269699e-03  9.4182689928950566e-03  1.2915423382700696e-02  1.1959388693581364e-02  1.6498844530834198e-02  1.7311456456059908e-02  2.1002431822257021e-02  2.1799802325408610e-