<?xml version="1.0"?>
<VTKFile type="UnstructuredGrid"  version="0.1"  >
<UnstructuredGrid>
<Piece  NumberOfPoints="2886" NumberOfCells="5412">
<Points>
<DataArray  type="Float64"  NumberOfComponents="3"  format="ascii">0 0.1 0  0.98 0.1 0  1 0.1 0  1 0 0  1.5 0 0  3 0 0  3 0.3 0  0 0.3 0  0.01975375321854102 0.1 0  0.03918897458218897 0.1 0  0.05831079002627837 0.1 0  0.07712425666319796 0.1 0  0.0956343475259058 0.1 0  0.1138459546796227 0.1 0  0.1317638870668193 0.1 0  0.1493928840275937 0.1 0  0.1667376092280033 0.1 0  0.1838026357802664 0.1 0  0.2005924801287244 0.1 0  0.2171115811543574 0.1 0  0.2333643037107681 0.1 0  0.2493549444060462 0.1 0  0.2650877293306821 0.1 0  0.2805668058011438 0.1 0  0.2957962848620976 0.1 0  0.3107801766802674 0.1 0  0.3255224447361181 0.1 0  0.3400269848175519 0.1 0  0.3542976327080778 0.1 0  0.3683381609158136 0.1 0  0.3821522744564845 0.1 0  0.3957436316838916 0.1 0  0.4091158196437086 0.1 0  0.4222723742184605 0.1 0  0.4352167733293057 0.1 0  0.4479524348643424 0.1 0  0.4604827295467524 0.1 0  0.4728109659990664 0.1 0  0.4849404035409129 0.1 0  0.4968742471455402 0.1 0  0.508615651843175 0.1 0  0.520167721130924 0.1 0  0.5315335063628542 0.1 0  0.5427160117228604 0.1 0  0.5537181940261912 0.1 0  0.564542961924507 0.1 0  0.575193173270606 0.1 0  0.5856716438765114 0.1 0  0.5959811458006617 0.1 0  0.6061243988680743 0.1 0  0.6161040893285659 0.1 0  0.6259228503970299 0.1 0  0.6355832809287655 0.1 0  0.6450879281079505 0.1 0  0.6544393102991295 0.1 0  0.663639896558931 0.1 0  0.6726921201956305 0.1 0  0.6815983691630338 0.1 0  0.6903610031396646 0.1 0  0.6989823343332418 0.1 0  0.7074646404270378 0.1 0  0.7158101645005117 0.1 0  0.7240211149852543 0.1 0  0.7320996585612525 0.1 0  0.7400479319727645 0.1 0  0.7478680336617921 0.1 0  0.755562036504958 0.1 0  0.7631319665092091 0.1 0  0.7705798279317605 0.1 0  0.777907588066146 0.1 0  0.7851171851013118 0.1 0  0.7922105226004981 0.1 0  0.7991894774550319 0.1 0  0.8060558928136696 0.1 0  0.812811583201334 0.1 0  0.8194583352091183 0.1 0  0.8259979035038147 0.1 0  0.8324320194413813 0.1 0  0.8387623808293405 0.1 0  0.8449906627004957 0.1 0  0.8511185094880469 0.1 0  0.8571475426008311 0.1 0  0.8630793533568246 0.1 0  0.8689155114558531 0.1 0  0.8746575581239063 0.1 0  0.8803070109173519 0.1 0  0.885865363938836 0.1 0  0.8913340851680313 0.1 0  0.8967146206523592 0.1 0  0.9020083930695622 0.1 0  0.9072167995950768 0.1 0  0.9123412183131177 0.1 0  0.9173830029719022 0.1 0  0.9223434865647732 0.1 0  0.9272239785872722 0.1 0  0.9320257720706087 0.1 0  0.9367501330378739 0.1 0  0.9413983102716995 0.1 0  0.9459715351562933 0.1 0  0.9504710127113115 0.1 0  0.9548979346500661 0.1 0  0.9592534708344373 0.1 0  0.9635387708980176 0.1 0  0.9677549682252325 0.1 0  0.971903177251235 0.1 0  0.9759844952956497 0.1 0  0.9840000000000086 0.1 0  0.987999999999974 0.1 0  0.9919999999999393 0.1 0  0.9959999999999913 0.1 0  1 0.09591793123533533 0  1 0.09133596463859224 0  1 0.08619288104391448 0  1 0.08041996484521211 0  1 0.07394008421771697 0  1 0.06666666567302955 0  1 0.05850252932209174 0  1 0.04933859630113544 0  1 0.03905242821848202 0  1 0.02750659386753798 0  1 0.01454683679239736 0  1.015625 0 0  1.03125 0 0  1.046875 0 0  1.0625 0 0  1.078125 0 0  1.09375 0 0  1.109375 0 0  1.125 0 0  1.140625 0 0  1.15625 0 0  1.171875 0 0  1.1875 0 0  1.203125 0 0  1.21875 0 0  1.234375 0 0  1.25 0 0  1.265625 0 0  1.28125 0 0  1.296875 0 0  1.3125 0 0  1.328125 0 0  1.34375 0 0  1.359375 0 0  1.375 0 0  1.390625 0 0  1.40625 0 0  1.421875 0 0  1.4375 0 0  1.453125 0 0  1.46875 0 0  1.484375 0 0  1.515920751924515 0 0  1.531989369316721 0 0  1.54820720925872 0 0  1.564575665560501 0 0  1.581096138674279 0 0  1.597770029901263 0 0  1.614598783332311 0 0  1.631583831055205 0 0  1.64872661129721 0 0  1.666028606716533 0 0  1.683491276608443 0 0  1.701116134125304 0 0  1.718904673324128 0 0  1.736858414799339 0 0  1.754978895814663 0 0  1.773267661782904 0 0  1.791726281103402 0 0  1.810356325314689 0 0  1.8291593848892 0 0  1.848137076690385 0 0  1.867291007717254 0 0  1.886622833871288 0 0  1.90613418642363 0 0  1.925826753299799 0 0  1.945702199101513 0 0  1.96576223584749 0 0  1.986008569283268 0 0  2.006442931928877 0 0  2.02706707547783 0 0  2.047882750887917 0 0  2.06889175187935 0 0  2.090095860038271 0 0  2.111496891648636 0 0  2.133096679109554 0 0  2.154897066851056 0 0  2.176899916687499 0 0  2.199107102752146 0 0  2.22152053937028 0 0  2.244142122958061 0 0  2.266973806444078 0 0  2.290017523268154 0 0  2.313275249499252 0 0  2.336748971745516 0 0  2.360440702338606 0 0  2.384352453384031 0 0  2.408486280477412 0 0  2.432844240041185 0 0  2.457428414757088 0 0  2.482240901796653 0 0  2.507283830121838 0 0  2.532559332080812 0 0  2.558069568787417 0 0  2.583816724966441 0 0  2.60980299606584 0 0  2.636030600971886 0 0  2.662501790984011 0 0  2.689218818279327 0 0  2.716183964547616 0 0  2.743399548861297 0 0  2.77086788244719 0 0  2.798591312896326 0 0  2.826572223178268 0 0  2.854812990138617 0 0  2.883316031690714 0 0  2.912083780657189 0 0  2.941118704633482 0 0  2.970423276998917 0 0  3 0.02999999999994495 0  3 0.05999999999987042 0  3 0.089999999999783 0  3 0.119999999999701 0  3 0.149999999999619 0  3 0.179999999999692 0  3 0.2099999999997737 0  3 0.2399999999998511 0  3 0.2699999999999185 0  2.970138294777171 0.3 0  2.940375666438236 0.3 0  2.910711782853056 0.3 0  2.881146331305122 0.3 0  2.851678975030285 0.3 0  2.822309388626621 0.3 0  2.793037250095074 0.3 0  2.76386223529133 0.3 0  2.734784017903872 0.3 0  2.705802289276642 0.3 0  2.676916713794697 0.3 0  2.648126987654635 0.3 0  2.619432780406184 0.3 0  2.590833779385199 0.3 0  2.562329669847737 0.3 0  2.533920134950189 0.3 0  2.505604855727852 0.3 0  2.477383539822502 0.3 0  2.449255847639465 0.3 0  2.421221492569094 0.3 0  2.393280152486815 0.3 0  2.36543151914496 0.3 0  2.337675285481809 0.3 0  2.310011142385583 0.3 0  2.282438797441587 0.3 0  2.254957931061538 0.3 0  2.227568248063605 0.3 0  2.200269436651085 0.3 0  2.173061204949961 0.3 0  2.145943251515011 0.3 0  2.118915272469994 0.3 0  2.091976978084957 0.3 0  2.065128060700849 0.3 0  2.038368218849433 0.3 0  2.01169717777258 0.3 0  1.985114624111908 0.3 0  1.958620267850966 0.3 0  1.93221382054972 0.3 0  1.905894991850698 0.3 0  1.879663489459713 0.3 0  1.853519019126419 0.3 0  1.827461291053897 0.3 0  1.801490031354372 0.3 0  1.775604937580312 0.3 0  1.74980572560258 0.3 0  1.724092118631866 0.3 0  1.698463829173586 0.3 0  1.672920575782554 0.3 0  1.647462076974085 0.3 0  1.622088043536933 0.3 0  1.5967981978949 0.3 0  1.571592267767068 0.3 0  1.546469970305736 0.3 0  1.521431023814044 0.3 0  1.496475156230927 0.3 0  1.471602093687753 0.3 0  1.446811560490646 0.3 0  1.422103279101731 0.3 0  1.397476971708191 0.3 0  1.37293238939876 0.3 0  1.348469231419202 0.3 0  1.324087248732772 0.3 0  1.299786165921677 0.3 0  1.275565710847046 0.3 0  1.251425617644257 0.3 0  1.227365618676339 0.3 0  1.203385446174014 0.3 0  1.179484853067473 0.3 0  1.155663548773374 0.3 0  1.131921292279077 0.3 0  1.108257802159295 0.3 0  1.084672829009693 0.3 0  1.061166115303374 0.3 0  1.037737392995421 0.3 0  1.01438640299116 0.3 0  0.991112899770314 0.3 0  0.9679166155523955 0.3 0  0.944797284182564 0.3 0  0.921754678526042 0.3 0  0.8987885143602501 0.3 0  0.8758985548820624 0.3 0  0.8530845484099929 0.3 0  0.8303462351786988 0.3 0  0.8076833651172373 0.3 0  0.7850956864865304 0.3 0  0.7625829601354557 0.3 0  0.7401449314598274 0.3 0  0.717781337993959 0.3 0  0.6954919649675473 0.3 0  0.6732765357561226 0.3 0  0.6511348120768439 0.3 0  0.6290665642016573 0.3 0  0.6070715355430467 0.3 0  0.5851494825775325 0.3 0  0.5633001690203812 0.3 0  0.5415233562273221 0.3 0  0.5198187909431873 0.3 0  0.4981862401387795 0.3 0  0.4766254686134248 0.3 0  0.4551362360485234 0.3 0  0.4337182975262159 0.3 0  0.4123714223228037 0.3 0  0.3910953802377493 0.3 0  0.3698899313205595 0.3 0  0.3487548463710963 0.3 0  0.3276898864081783 0.3 0  0.3066948129116018 0.3 0  0.2857694003037476 0.3 0  0.2649134227095047 0.3 0  0.2441266417321288 0.3 0  0.2234088223399122 0.3 0  0.2027597568977288 0.3 0  0.1821792020676698 0.3 0  0.1616669305402443 0.3 0  0.1412227158799362 0.3 0  0.12084633013886 0.3 0  0.1005375673448281 0.3 0  0.08029618164595353 0.3 0  0.06012194778526769 0.3 0  0.04001466495039718 0.3 0  0.01997408913631205 0.3 0  0 0.2800000000000553 0  0 0.2600000000001105 0  0 0.2400000000001658 0  0 0.2200000000002211 0  0 0.2000000000002764 0  0 0.1800000000002244 0  0 0.1600000000001691 0  0 0.140000000000115 0  0 0.1200000000000564 0  1.13346801534201 0.01255848438672509 0  1.003577645172735 0.09351054173913405 0  0.9777559943702486 0.1034978156913738 0  0.9524533750752109 0.1040889939962738 0  0.9296242411226409 0.1041520033606139 0  0.9046110503652111 0.104409422380137 0  0.8777709649694228 0.1053360318797398 0  0.8483859145648608 0.1061007868330701 0  0.8162363822948977 0.1052777104363292 0  0.7893110024210437 0.1060761643971561 0  0.7587949382612539 0.1067265405088633 0  0.7280603867732535 0.1069398153264939 0  0.6947001989413015 0.1075609887579097 0  0.6590363283767549 0.1076715322596598 0  0.6210028614493155 0.1072970410408442 0  1.1953125 0.01353164693413185 0  1.258193991486058 0.01269648635163345 0  1.3201967268638 0.01407907077719561 0  1.383538555392096 0.01434101079053473 0  1.445312500000001 0.01303671693628424 0  1.508925448095738 0.01398525724792267 0  0.9939176689634008 0.1034638089837981 0  1.120967497222226 0.2796788492172345 0  1.572835902117391 0.01424132418857359 0  1.637573277451887 0.01212536916586023 0  1.709730776795181 0.01466855431023635 0  1.005631976950563 0.07074019818158772 0  1.784944696816299 0.01454708406461822 0  0.5805605730631225 0.1101465090472147 0  1.855621181165637 0.01550931272897607 0  0.5366111276616774 0.1096761308243709 0  1.935200147913231 0.01760344159641829 0  1.214922267975168 0.2799787705802257 0  1.31178773425331 0.2792
[...]
<PointData  Scalars="pressure"> 
<DataArray  type="Float64"  Name="pressure"  format="ascii">1.6037409184396939e-01  -1.6494846092025855e-01  -2.1775239972650468e-01  -1.6224484248928031e-01  -4.1634382677127692e-02  0.0000000000000000e+00  0.0000000000000000e+00  1.6038092074043905e-01  1.5444796945437317e-01  1.4861733996200507e-01  1.4288063812017390e-01  1.3723633964050908e-01  1.3168293221683572e-01  1.2621893732433276e-01  1.2084291987952869e-01  1.1555341210948034e-01  1.1034901826489033e-01  1.0522835076286410e-01  1.0019000743481050e-01  9.5232639754240983e-02  9.0354933620787378e-02  8.5555530615842132e-02  8.0833134623267383e-02  7.6186529140426520e-02  7.1614328211663400e-02  6.7115338424034027e-02  6.2688321145044912e-02  5.8331984392081919e-02  5.4045165221446263e-02  4.9826733579899390e-02  4.5675354812870793e-02  4.1589947524476228e-02  3.7569237466936641e-02  3.3612129532402765e-02  2.9717578631320934e-02  2.5884331010450765e-02  2.2111217453434487e-02  1.8397194036691634e-02  1.4741139972097004e-02  1.1141876822496583e-02  7.5984153921081800e-03  4.1095398952411136e-03  6.7423538243615276e-04  -2.7086570411409788e-03  -6.0401986143824834e-03  -9.3210856792293861e-03  -1.2553077167609629e-02  -1.5736803714773009e-02  -1.8873366478049124e-02  -2.1964016279141952e-02  -2.5009761704285857e-02  -2.8011073644859334e-02  -3.0969930100672435e-02  -3.3886836560776561e-02  -3.6762898035460498e-02  -3.9599231012976979e-02  -4.2396813996964496e-02  -4.5156681596554039e-02  -4.7879994961737914e-02  -5.0567677520061548e-02  -5.3220685465859043e-02  -5.5839961857770168e-02  -5.8427038993987775e-02  -6.0982319172929587e-02  -6.3507044027430917e-02  -6.6001871143786334e-02  -6.8468761309738391e-02  -7.0908144249764105e-02  -7.3320293318305738e-02  -7.5706893377134613e-02  -7.8069471032518989e-02  -8.0407773491508253e-02  -8.2723798085150860e-02  -8.5018255128158193e-02  -8.7291452615057025e-02  -8.9544923016396147e-02  -9.1779546848169413e-02  -9.3996229728321987e-02  -9.6196643660310513e-02  -9.8380910565639218e-02  -1.0054948836391876e-01  -1.0270304255966081e-01  -1.0484483261834250e-01  -1.0697403118963565e-01  -1.0909129924440283e-01  -1.1119841884792611e-01  -1.1329577176041464e-01  -1.1538425978672588e-01  -1.1746492382554743e-01  -1.1953951253746065e-01  -1.2160845467837315e-01  -1.2367193336472525e-01  -1.2573211516722363e-01  -1.2778977710630901e-01  -1.2984589409320588e-01  -1.3190163198153437e-01  -1.3395799271919354e-01  -1.3601632379303757e-01  -1.3807796894516644e-01  -1.4014437996886417e-01  -1.4221686764482561e-01  -1.4429666441233593e-01  -1.4638261250721424e-01  -1.4845761163073709e-01  -1.5081893511440689e-01  -1.5159939476288822e-01  -1.5469081096596751e-01  -1.5020212181240414e-01  -1.5548959476371205e-01  -1.5379689968217383e-01  -2.0444517381652502e-01  -1.8272082500036932e-01  -1.7609832020170840e-01  -1.7129102270756519e-01  -1.6805093791753761e-01  -1.6562151446404169e-01  -1.6380347692711841e-01  -1.6247340253166651e-01  -1.6167657671060218e-01  -1.6148411260129775e-01  -1.6189264084755206e-01  -1.6268577582249377e-01  -1.6306266200797404e-01  -1.6285988457349776e-01  -1.6219280187806748e-01  -1.6115222669217252e-01  -1.5978199568497864e-01  -1.5806720654908921e-01  -1.5599511250906695e-01  -1.5359462953304326e-01  -1.5088293045015169e-01  -1.4786382075149124e-01  -1.4455077227495564e-01  -1.4095457013091589e-01  -1.3708697403689973e-01  -1.3296802220483567e-01  -1.2861026983447604e-01  -1.2402576374402834e-01  -1.1923247606849807e-01  -1.1424892896186677e-01  -1.0908524180598167e-01  -1.0377128012406907e-01  -9.8324797482286785e-02  -9.2761446135983819e-02  -8.7111819993813705e-02  -8.1394176509411845e-02  -7.5637756272774387e-02  -6.9864839736071147e-02  -6.4098065181944497e-02  -5.8369158335764733e-02  -5.2699040297193502e-02  -4.7113861917033692e-02  -3.6184613736690338e-02  -3.0850298681539601e-02  -2.5640996016525020e-02  -2.0591419450226675e-02  -1.5729056714439176e-02  -1.1055891010169679e-02  -6.5999437007235951e-03  -2.3667156092617657e-03  1.5946385822869155e-03  5.3079558482303658e-03  8.7721352229594516e-03  1.1965739099789810e-02  1.4890828605871164e-02  1.7554108331442976e-02  1.9959362372623569e-02  2.2111608163307872e-02  2.4026208469761338e-02  2.5703621042401727e-02  2.7158485445701461e-02  2.8421414567387001e-02  2.9481042307285040e-02  3.0367872211880035e-02  3.1095692583531686e-02  3.1672798923449236e-02  3.2120883110018504e-02  3.2444656608165590e-02  3.2675457105987536e-02  3.2804035533861901e-02  3.2851622036745340e-02  3.2823246665005121e-02  3.2726875768450917e-02  3.2572097255424759e-02  3.2368260598689122e-02  3.2119528058027674e-02  3.1826693130875057e-02  3.1496971142810457e-02  3.1131058714535045e-02  3.0731651842102380e-02  3.0299801200313566e-02  2.9835869542675513e-02  2.9340169625056787e-02  2.8812555655897999e-02  2.8251716006702763e-02  2.7657871080057978e-02  2.7028450570834219e-02  2.6362063048509118e-02  2.5659738166286184e-02  2.4916601200513266e-02  2.4130647047323015e-02  2.3306172287754508e-02  2.2433629035803749e-02  2.1520020586068979e-02  2.0554873446142367e-02  1.9546965777558836e-02  1.8488524881719159e-02  1.7375748163638807e-02  1.6219107112345661e-02  1.5004436562534626e-02  1.3743071029491448e-02  1.2428932733724746e-02  1.1061007427298899e-02  9.6392997538742968e-03  8.1659645935486420e-03  6.6441658467686219e-03  5.0644790232114139e-03  3.4446549679057431e-03  1.7683674195613358e-03  0.0000000000000000e+00  0.0000000000000000e+00  0.0000000000000000e+00  0.0000000000000000e+00  0.0000000000000000e+00  0.0000000000000000e+00  0.0000000000000000e+00  0.0000000000000000e+00  0.0000000000000000e+00  1.9225836556135889e-03  3.7166604910768238e-03  5.4830014155138529e-03  7.1959991727554426e-03  8.8594367898412914e-03  1.0472034556185356e-02  1.2032856722456230e-02  1.3540161456274156e-02  1.4991056601341571e-02  1.6383308932469750e-02  1.7712870991347565e-02  1.8977228135886089e-02  2.0171265110015806e-02  2.1291938616558394e-02  2.2334354855673463e-02  2.3291889473161180e-02  2.4164102773033384e-02  2.4939795469223109e-02  2.5614257420149993e-02  2.6181292085642523e-02  2.6633996196829685e-02  2.6965689515927795e-02  2.7170671934812960e-02  2.7238200904966321e-02  2.7166580085632084e-02  2.6944170511447641e-02  2.6568785518362892e-02  2.6029105065453789e-02  2.5320068148587272e-02  2.4439093860639621e-02  2.3375549766991091e-02  2.2124064260708193e-02  2.0699609058297389e-02  1.9088024773358594e-02  1.7263365704734954e-02  1.5266111037931454e-02  1.3072900010162501e-02  1.0684818226734000e-02  8.1033826638809755e-03  5.3362678400323080e-03  2.3747324765351022e-03  -7.6738846397646080e-04  -4.0984813592477038e-03  -7.6078546035576542e-03  -1.1306673336689922e-02  -1.5179107455550669e-02  -1.9226280228977939e-02  -2.3439068761869523e-02  -2.7820609752965433e-02  -3.2356783806747010e-02  -3.7044591999309470e-02  -4.1872296545734072e-02  -4.6826136744398381e-02  -5.1897109435429960e-02  -5.7069190807837164e-02  -6.2318156488743129e-02  -6.7583731520885051e-02  -7.2912831857192675e-02  -7.8219206097874278e-02  -8.3441855360369674e-02  -8.8584675972060281e-02  -9.3575048141473618e-02  -9.8392506757649434e-02  -1.0293012652278545e-01  -1.0718045257500790e-01  -1.1103256686051359e-01  -1.1447415778218567e-01  -1.1739311791581358e-01  -1.1979379769915199e-01  -1.2154345149388432e-01  -1.2265813102997696e-01  -1.2306804082173733e-01  -1.2264864898113821e-01  -1.2157375025196042e-01  -1.1971693356586982e-01  -1.1709160338801748e-01  -1.1382006948578961e-01  -1.0993119740722526e-01  -1.0555104872590966e-01  -1.0074969026062626e-01  -9.5529555986824069e-02  -9.0022600153111240e-02  -8.4267350785927772e-02  -7.8352389163532168e-02  -7.2282387866622513e-02  -6.6084224723933313e-02  -5.9807794362016282e-02  -5.3465631615378026e-02  -4.7068335755426127e-02  -4.0638352778929035e-02  -3.4180563929150296e-02  -2.7712368175138398e-02  -2.1236556928801931e-02  -1.4755587268734370e-02  -8.2803074137822140e-03  -1.8118967431500076e-03  4.6484886802887291e-03  1.1097554344949573e-02  1.7532368448416210e-02  2.3951832382926089e-02  3.0355458019802502e-02  3.6741797506701521e-02  4.3110675267688851e-02  4.9460571077277186e-02  5.5791823714587303e-02  6.2103750650857666e-02  6.8396098952215073e-02  7.4668781521717881e-02  8.0921510594402390e-02  8.7154242438084603e-02  9.3366948078649425e-02  9.9559539774375080e-02  1.0573199664413453e-01  1.1188432275105052e-01  1.1801653257543669e-01  1.2412860972924947e-01  1.3022062451676561e-01  1.3629260065148033e-01  1.4234456920853433e-01  1.4837658485097416e-01  1.5438868465774069e-01  1.6038089435966202e-01  1.6038061052777830e-01  1.6037991734017840e-01  1.6037882920072910e-01  1.6037750746580012e-01  1.6037618436705156e-01  1.6037509395339627e-01  1.6037439614689158e-01  1.6037411333473478e-01  -1.5443157105681998e-01  -1.8732816288162799e-01  -1.5448809710599179e-01  -1.4120127857970063e-01  -1.3096728124629139e-01  -1.2064592105598142e-01  -1.1031663437363344e-01  -9.9634319755361966e-02  -8.8486158910263318e-02  -7.9480343202265963e-02  -6.9532481709371555e-02  -5.9721307309029588e-02  -4.9245695080636871e-02  -3.8189117656258209e-02  -2.6513006787413754e-02  -1.4260901178371918e-01  -1.2619140988905805e-01  -1.0656462836112923e-01  -8.4188470171343024e-02  -6.1501725017038232e-02  -3.8935021986049166e-02  -1.6663274988129220e-01  -1.2153176508446198e-01  -1.8549674873428991e-02  -1.3332691692136704e-03  1.3012928950501240e-02  -1.6753555856640115e-01  2.3004930508810677e-02  -1.4189054991837325e-02  2.8564296550446247e-02  -8.6500332549352464e-04  3.1671678829030513e-02  -1.1218771046283119e-01  -9.5345592472116977e-02  3.2707449838052682e-02  -7.5125729291993681e-02  1.2941869714590343e-02  -4.8953542984992222e-02  3.2382534951627427e-02  2.7799572164293934e-02  -1.5998257956859463e-01  3.1243260500028340e-02  -2.5394985424233893e-02  -1.2164551739145683e-01  4.3200563618611978e-02  2.9538027526381665e-02  -2.3744953673669354e-03  6.0697090698836116e-02  6.5838639432787543e-03  2.7278930820741898e-02  1.4270201812214367e-02  7.7987473385555589e-02  -1.1517005672491036e-01  2.4537892210472766e-02  1.9882296550260182e-02  -1.0304612205267083e-01  2.3914379869063054e-02  2.1018213550809621e-02  -8.7142938457557467e-02  9.8187203401514392e-02  1.1220413716466562e-01  -1.3131431385411204e-02  1.7901937701047463e-02  1.4200818776857534e-02  2.6227227234014501e-02  -6.9391512772858904e-02  2.7099628436230313e-02  -1.4739960548684611e-01  -4.4296682487431543e-02  2.6307445065827662e-02  1.2965581289393391e-01  -2.4513182928155377e-02  1.0322003555861077e-02  2.3660367038269740e-02  -4.9254829884762888e-03  2.0909192221036460e-02  2.0663188918945065e-02  5.2626798827579833e-02  1.6989420315122454e-02  7.1588720811552889e-02  9.0366584560098343e-02  1.2742455359444196e-02  1.2196690380868248e-01  1.6099281399392473e-03  1.5479751598982683e-01  -1.6267576934541825e-01  8.1237957713808095e-03  5.7323651684171913e-03  1.3976957909829060e-01  -1.7411973243589884e-01  -1.6203246784416661e-01  -1.1799096937170456e-01  -5.6544763201545667e-02  7.3789632639598623e-03  3.3216350115367874e-02  1.4011002680106591e-01  -3.9572331519703470e-02  -6.4226752324095984e-02  -8.5380342492666239e-02  -1.0439167574391106e-01  8.8249713631629118e-02  2.6955428607369714e-02  6.9077057587308158e-02  1.0260832061582800e-01  2.5189377301401788e-02  2.2863557021343843e-02  5.1376030416280034e-02  2.5903768236808331e-02  2.8489995785852599e-02  3.5839919475472395e-02  3.0456958531160122e-02  3.1896851713244509e-02  3.2676886182170489e-02  3.2424327941696099e-02  -2.8611843198759705e-02  2.0252529579258601e-02  3.0430343254315515e-02  2.6124542194520751e-02  5.8708678352931603e-03  1.8630118526002919e-02  6.6597878469629047e-03  -9.0677408231115090e-03  1.3421800730611870e-03  -8.0443570838571159e-03  -1.9971792602017591e-02  1.5513746652671692e-01  -3.2119040815849140e-02  -4.3787879774844093e-02  -5.4545379809701568e-02  -6.4866441625798466e-02  -7.4587591390642680e-02  -8.3796329841356987e-02  -1.4898928666298872e-01  -9.5138685593598657e-02  -1.0595997603401280e-01  -1.1649321353105420e-01  -1.3496275545080674e-01  -1.2691342260465757e-01  -9.5875851972189549e-02  -1.1628101510787826e-01  -7.3826812119441323e-02  -5.0218019929998026e-02  -1.3715125943558354e-01  -1.5431899879178965e-01  1.6890866143937336e-03  1.5464058935388963e-01  4.5284848456159758e-03  -1.6245760233818027e-01  1.5538946586979949e-01  1.3680717089681830e-03  1.5128490254219126e-01  -1.6242737694732587e-01  -1.6208946349143008e-01  -1.6163236273551271e-01  -1.6213108200426157e-01  -1.6165626328563473e-01  -1.6248379504229502e-01  -1.6182799767638345e-01  -1.6294076489573600e-01  -1.6211429876641947e-01  -1.6326582728065778e-01  -1.6232060823801914e-01  -1.6319577209981631e-01  -1.6205575628124111e-01  -1.6256569669427087e-01  -1.6128932057638851e-01  -1.6147609061864751e-01  -1.6002591815545641e-01  -1.5998056313237421e-01  -1.5836190562859603e-01  -1.5789494416258520e-01  -1.5598273454802100e-01  -1.5955553684995433e-01  -1.5654994768533248e-01  -1.5378409794765499e-01  -1.5675321996998734e-01  -1.5866471138826943e-01  -1.5411506970054215e-01  -1.5121338488384561e-01  -1.5146649588441857e-01  -1.4820081558473663e-01  -1.4833713214587502e-01  -1.4474952176841319e-01  -1.4480641455406415e-01  -1.4115001139722361e-01  -1.4087197426426271e-01  -1.3647997428049558e-01  -1.3631435075822251e-01  -1.3210556559599021e-01  -1.3151407995486442e-01  -1.2714372460309656e-01  -1.2631475393151448e-01  -1.2185415440475383e-01  -1.2080154278367647e-01  -1.1629843443391948e-01  -1.1498225384080052e-01  -1.1050657066388861e-01  -1.0889061791602189e-01  -1.0449198504794723e-01  -1.0259047337333536e-01  -9.8335876926813753e-02  -9.6093189765617190e-02  -9.2074980391849970e-02  -8.9380784611662434e-02  -1.5474180870876975e-01  -1.5642180872216124e-01  -8.5723530000820863e-02  -8.2603577941803064e-02  -7.9370858953459744e-02  -7.6254178789718755e-02  -7.3102642978152485e-02  -6.9637132358522216e-02  -6.6931263427675067e-02  -6.3139133511823223e-02  -1.5003630975721693e-01  -6.0970602806174869e-02  -5.6752895491815288e-02  -5.4911752694186702e-02  -5.0494419025169997e-02  -4.9280122890980410e-02  -4.4517338613116748e-02  -1.5168950091306016e-01  -1.5343986852272243e-01  -1.6369509925252373e-01  -4.3780899405662876e-02  -3.8733753965010123e-02  -3.8558615454833862e-02  -3.3232031997951848e-02  -3.3593303598358645e-02  -2.8045158762349687e-02  -1.5984311694885750e-01  -2.8904318407068315e-02  -2.3140812450929492e-02  -1.4037192272995627e-01  -2.4477470204198961e-02  -1.8567267079771466e-02  -2.0345287150289670e-02  -1.4317396509428268e-02  -1.6425777525749734e-02  -1.0381856129723564e-02  -1.6065680080046599e-01  -1.2697622705290526e-01  -1.2842371033028261e-02  -6.7623874394481392e-03  -1.4764559653784506e-01  -1.4863350888531640e-01  -1.4623941201510662e-01  -1.1112514195550756e-01  -9.4524834834361048e-03  -3.2973239165284668e-03  -6.4082100039702669e-03  -1.8889611947350591e-04  -3.5172442781467154e-03  2.5005802970450874e-03  -3.9578182088523282e-02  -5.0156352318453910e-04  -2.2535432351445391e-02  -5.9027574251529540e-02  -8.4054078516832931e-04  4.9642533644238531e-03  8.2999816964368575e-03  1.0610011868213922e-02  7.2677543447637110e-03  1.2692222962381677e-02  9.4391591405777724e-03  1.4634433846397406e-02  1.1397918225101432e-02  1.6323919995996986e-02  1.3191024331068295e-02  1.7880016117487730e-02  1.4878425079142891e-02  1.9246395839360716e-02  1.6340409589729855e-02  2.0494212938148734e-02  1.7802520868802019e-02  2.1735505502165044e-02  1.9107787946431896e-02  2.2753224499445460e-02  2.0338090385105350e-02  2.3637567730002911e-02  2.1321563844639197e-02  2.4442825173405541e-02  -7.9186334966456468e-02  -9.4074832583879248e-02  2.2329017568125900e-02  2.5122675452575099e-02  2.3285303961351197e-02  2.5770031202325974e-02  -1.4760699754437198e-01  -1.1285248901535141e-01  2.4137573338629599e-02  2.6305053435127113e-02  -1.2999113005277380e-01  -7.6686659532760534e-02  -1.4268911653835156e-01  -1.4321391351108512e-01  -1.4986186971900428e-01  -1.4330541737161964e-01  -1.4874950216604782e-01  -1.4263623469822773e-01  -1.4824912071696350e-01  -1.4139459424764733e-01  -1.4518193485002751e-01  -1.3917524308380985e-01  -1.4301449283355222e-01  -1.3660823044884804e-01  -1.3891754118440899e-01  -1.3345298102624689e-01  -1.3510077494728048e-01  -1.3016968256079237e-01  -1.3123480437200474e-01  -1.2667144270251124e-01  -1.2735757920278801e-01  -1.2312719699816939e-01  -1.2347461424434859e-01  -1.1950994275387017e-01  -1.1962453801729422e-01  -1.1588154207594092e-01  -1.1579542854762788e-01  -1.1228585665067171e-01  -1.1166856351946884e-01  -1.0842194731997357e-01  -1.0869359220691611e-01  -1.0507885644911596e-01  -1.0474381818749956e-01  -1.0146876461768611e-01  -1.0115487217418480e-01  -9.7904015589243873e-02  -9.7344896225062566e-02  -9.4283025344604157e-02  -1.2834441261557603e-01  -1.0489863930720865e-01  -1.1872979359843823e-01  -9.3667015544856555e-02  -9.0584414140511216e-02  -9.0972740848254824e-02  -8.7438428401342222e-02  -8.6845670720096524e-02  -8.3822459390084272e-02  -8.3062874917637045e-02  -8.0154433758119537e-02  -7.9296004429746894e-02  -7.6432497045459916e-02  -8.3681965324990865e-02  -1.5372064868166477e-01  -1.4416261658188692e-01  -7.5590269462435855e-02  -7.2652857475388355e-02  -7.3457909300810989e-02  -6.9679976104360275e-02  -6.8849245928841507e-02  -6.5919939149603812e-02  -6.4989813999243057e-02  -6.2136453491637440e-02  -1.3573160806567688e-01  -6.6489918404978254e-02  -6.1153935354525006e-02  -5.8367373298927494e-02  -1.2734536997367746e-01  -5.7432111298593692e-02  -5.4543870927873335e-02  -5.5754682409336807e-02  -5.1607697088637293e-02  -5.0611198949883619e-02  -4.7560206685731965e-02  -4.8518063569813384e-02  -4.4469543068651446e-02  -4.3530849274346292e-02  -4.0430690223988382e-02  -3.9486617936460196e-02  -3.6299373716575267e-02  -3.7269858895561302e-02  -3.3139784352572192e-02  -3.2142768960004321e-02  -2.9006308746099916e-02  -2.8050875297988012e-02  -2.4891646700033632e-02  -1.3767573499799513e-01  -1.0435290817787868e-01  -1.1917742195057750e-01  -2.4032346912514126e-02  -2.0809759453256620e-02  -2.1682088894482244e-02  -1.7445583080116230e-02  -1.6580490871635826e-02  -1.3215618745247950e-02  -1.8316903799763470e-02  2.4814928508332171e-02  2.6751702940080366e-02  2.5433124620364990e-02  2.7130874359466931e-02  2.5986113048666930e-02  2.7438113310904160e-02  -8.6120981662629256e-02  -4.8772106828811307e-02  -1.6350768470502258e-01  -1.2320428239498752e-02  -9.0217618522030491e-03  -9.6621506007574062e-02  2.2323387907009135e-02  2.6547719673200503e-02  1.3408938361089187e-02  2.6447654429207108e-02  2.7664336798223096e-02  2.8743113084381031e-02  2.8746596379115686e-02  2.7815776607779244e-02  2.8697693916435223e-02  2.7899944357853063e-02  2.8589799119082146e-02  2.7901314514179328e-02  2.8414574759646729e-02  2.7830276895782557e-02  2.8181316300817008e-02  2.7675101334260516e-02  2.7876260053445685e-02  2.7443398227914518e-02  2.7511677348444754e-02  2.7138798362462236e-02  2.7085480092800006e-02  2.6764546999332377e-02  2.6600086198454581e-02  2.6310157151892388e-02  2.6040123029799890e-02  2.5773673992997945e-02  2.5428695359317154e-02  2.5159807781268737e-02  2.4730102843194175e-02  2.4485662269322271e-02  2.3991230487042863e-02  2.3717100967257546e-02  2.3166440029599316e-02  2.2892554299648007e-02  2.2293921349273691e-02  2.8365738753651858e-02  -3.4177611795248593e-02  -6.7955493012523238e-02  -8.0056597761437413e-03  -4.7189990075509692e-03  -5.7264220064427449e-03  -1.2715569772325862e-03  -2.3234767186306664e-03  2.2354480762887541e-03  3.1661909774671538e-03  6.6934133995774966e-03  7.7430554956168310e-03  1.1243210057482184e-02  1.0291013979927868e-02  1.4829282128945485e-02  1.5638691728758501e-02  1.9331988177231852e-02  2.0126764987512452e