<?xml version="1.0"?>
<VTKFile type="UnstructuredGrid"  version="0.1"  >
<UnstructuredGrid>
<Piece  NumberOfPoints="2886" NumberOfCells="5412">
<Points>
<DataArray  type="Float64"  NumberOfComponents="3"  format="ascii">0 0.1 0  0.98 0.1 0  1 0.1 0  1 0 0  1.5 0 0  3 0 0  3 0.3 0  0 0.3 0  0.01975375321854102 0.1 0  0.03918897458218897 0.1 0  0.05831079002627837 0.1 0  0.07712425666319796 0.1 0  0.0956343475259058 0.1 0  0.1138459546796227 0.1 0  0.1317638870668193 0.1 0  0.1493928840275937 0.1 0  0.1667376092280033 0.1 0  0.1838026357802664 0.1 0  0.2005924801287244 0.1 0  0.2171115811543574 0.1 0  0.2333643037107681 0.1 0  0.2493549444060462 0.1 0  0.2650877293306821 0.1 0  0.2805668058011438 0.1 0  0.2957962848620976 0.1 0  0.3107801766802674 0.1 0  0.3255224447361181 0.1 0  0.3400269848175519 0.1 0  0.3542976327080778 0.1 0  0.3683381609158136 0.1 0  0.3821522744564845 0.1 0  0.3957436316838916 0.1 0  0.4091158196437086 0.1 0  0.4222723742184605 0.1 0  0.4352167733293057 0.1 0  0.4479524348643424 0.1 0  0.4604827295467524 0.1 0  0.4728109659990664 0.1 0  0.4849404035409129 0.1 0  0.4968742471455402 0.1 0  0.508615651843175 0.1 0  0.520167721130924 0.1 0  0.5315335063628542 0.1 0  0.5427160117228604 0.1 0  0.5537181940261912 0.1 0  0.564542961924507 0.1 0  0.575193173270606 0.1 0  0.5856716438765114 0.1 0  0.5959811458006617 0.1 0  0.6061243988680743 0.1 0  0.6161040893285659 0.1 0  0.6259228503970299 0.1 0  0.6355832809287655 0.1 0  0.6450879281079505 0.1 0  0.6544393102991295 0.1 0  0.663639896558931 0.1 0  0.6726921201956305 0.1 0  0.6815983691630338 0.1 0  0.6903610031396646 0.1 0  0.6989823343332418 0.1 0  0.7074646404270378 0.1 0  0.7158101645005117 0.1 0  0.7240211149852543 0.1 0  0.7320996585612525 0.1 0  0.7400479319727645 0.1 0  0.7478680336617921 0.1 0  0.755562036504958 0.1 0  0.7631319665092091 0.1 0  0.7705798279317605 0.1 0  0.777907588066146 0.1 0  0.7851171851013118 0.1 0  0.7922105226004981 0.1 0  0.7991894774550319 0.1 0  0.8060558928136696 0.1 0  0.812811583201334 0.1 0  0.8194583352091183 0.1 0  0.8259979035038147 0.1 0  0.8324320194413813 0.1 0  0.8387623808293405 0.1 0  0.8449906627004957 0.1 0  0.8511185094880469 0.1 0  0.8571475426008311 0.1 0  0.8630793533568246 0.1 0  0.8689155114558531 0.1 0  0.8746575581239063 0.1 0  0.8803070109173519 0.1 0  0.885865363938836 0.1 0  0.8913340851680313 0.1 0  0.8967146206523592 0.1 0  0.9020083930695622 0.1 0  0.9072167995950768 0.1 0  0.9123412183131177 0.1 0  0.9173830029719022 0.1 0  0.9223434865647732 0.1 0  0.9272239785872722 0.1 0  0.9320257720706087 0.1 0  0.9367501330378739 0.1 0  0.9413983102716995 0.1 0  0.9459715351562933 0.1 0  0.9504710127113115 0.1 0  0.9548979346500661 0.1 0  0.9592534708344373 0.1 0  0.9635387708980176 0.1 0  0.9677549682252325 0.1 0  0.971903177251235 0.1 0  0.9759844952956497 0.1 0  0.9840000000000086 0.1 0  0.987999999999974 0.1 0  0.9919999999999393 0.1 0  0.9959999999999913 0.1 0  1 0.09591793123533533 0  1 0.09133596463859224 0  1 0.08619288104391448 0  1 0.08041996484521211 0  1 0.07394008421771697 0  1 0.06666666567302955 0  1 0.05850252932209174 0  1 0.04933859630113544 0  1 0.03905242821848202 0  1 0.02750659386753798 0  1 0.01454683679239736 0  1.015625 0 0  1.03125 0 0  1.046875 0 0  1.0625 0 0  1.078125 0 0  1.09375 0 0  1.109375 0 0  1.125 0 0  1.140625 0 0  1.15625 0 0  1.171875 0 0  1.1875 0 0  1.203125 0 0  1.21875 0 0  1.234375 0 0  1.25 0 0  1.265625 0 0  1.28125 0 0  1.296875 0 0  1.3125 0 0  1.328125 0 0  1.34375 0 0  1.359375 0 0  1.375 0 0  1.390625 0 0  1.40625 0 0  1.421875 0 0  1.4375 0 0  1.453125 0 0  1.46875 0 0  1.484375 0 0  1.515920751924515 0 0  1.531989369316721 0 0  1.54820720925872 0 0  1.564575665560501 0 0  1.581096138674279 0 0  1.597770029901263 0 0  1.614598783332311 0 0  1.631583831055205 0 0  1.64872661129721 0 0  1.666028606716533 0 0  1.683491276608443 0 0  1.701116134125304 0 0  1.718904673324128 0 0  1.736858414799339 0 0  1.754978895814663 0 0  1.773267661782904 0 0  1.791726281103402 0 0  1.810356325314689 0 0  1.8291593848892 0 0  1.848137076690385 0 0  1.867291007717254 0 0  1.886622833871288 0 0  1.90613418642363 0 0  1.925826753299799 0 0  1.945702199101513 0 0  1.96576223584749 0 0  1.986008569283268 0 0  2.006442931928877 0 0  2.02706707547783 0 0  2.047882750887917 0 0  2.06889175187935 0 0  2.090095860038271 0 0  2.111496891648636 0 0  2.133096679109554 0 0  2.154897066851056 0 0  2.176899916687499 0 0  2.199107102752146 0 0  2.22152053937028 0 0  2.244142122958061 0 0  2.266973806444078 0 0  2.290017523268154 0 0  2.313275249499252 0 0  2.336748971745516 0 0  2.360440702338606 0 0  2.384352453384031 0 0  2.408486280477412 0 0  2.432844240041185 0 0  2.457428414757088 0 0  2.482240901796653 0 0  2.507283830121838 0 0  2.532559332080812 0 0  2.558069568787417 0 0  2.583816724966441 0 0  2.60980299606584 0 0  2.636030600971886 0 0  2.662501790984011 0 0  2.689218818279327 0 0  2.716183964547616 0 0  2.743399548861297 0 0  2.77086788244719 0 0  2.798591312896326 0 0  2.826572223178268 0 0  2.854812990138617 0 0  2.883316031690714 0 0  2.912083780657189 0 0  2.941118704633482 0 0  2.970423276998917 0 0  3 0.02999999999994495 0  3 0.05999999999987042 0  3 0.089999999999783 0  3 0.119999999999701 0  3 0.149999999999619 0  3 0.179999999999692 0  3 0.2099999999997737 0  3 0.2399999999998511 0  3 0.2699999999999185 0  2.970138294777171 0.3 0  2.940375666438236 0.3 0  2.910711782853056 0.3 0  2.881146331305122 0.3 0  2.851678975030285 0.3 0  2.822309388626621 0.3 0  2.793037250095074 0.3 0  2.76386223529133 0.3 0  2.734784017903872 0.3 0  2.705802289276642 0.3 0  2.676916713794697 0.3 0  2.648126987654635 0.3 0  2.619432780406184 0.3 0  2.590833779385199 0.3 0  2.562329669847737 0.3 0  2.533920134950189 0.3 0  2.505604855727852 0.3 0  2.477383539822502 0.3 0  2.449255847639465 0.3 0  2.421221492569094 0.3 0  2.393280152486815 0.3 0  2.36543151914496 0.3 0  2.337675285481809 0.3 0  2.310011142385583 0.3 0  2.282438797441587 0.3 0  2.254957931061538 0.3 0  2.227568248063605 0.3 0  2.200269436651085 0.3 0  2.173061204949961 0.3 0  2.145943251515011 0.3 0  2.118915272469994 0.3 0  2.091976978084957 0.3 0  2.065128060700849 0.3 0  2.038368218849433 0.3 0  2.01169717777258 0.3 0  1.985114624111908 0.3 0  1.958620267850966 0.3 0  1.93221382054972 0.3 0  1.905894991850698 0.3 0  1.879663489459713 0.3 0  1.853519019126419 0.3 0  1.827461291053897 0.3 0  1.801490031354372 0.3 0  1.775604937580312 0.3 0  1.74980572560258 0.3 0  1.724092118631866 0.3 0  1.698463829173586 0.3 0  1.672920575782554 0.3 0  1.647462076974085 0.3 0  1.622088043536933 0.3 0  1.5967981978949 0.3 0  1.571592267767068 0.3 0  1.546469970305736 0.3 0  1.521431023814044 0.3 0  1.496475156230927 0.3 0  1.471602093687753 0.3 0  1.446811560490646 0.3 0  1.422103279101731 0.3 0  1.397476971708191 0.3 0  1.37293238939876 0.3 0  1.348469231419202 0.3 0  1.324087248732772 0.3 0  1.299786165921677 0.3 0  1.275565710847046 0.3 0  1.251425617644257 0.3 0  1.227365618676339 0.3 0  1.203385446174014 0.3 0  1.179484853067473 0.3 0  1.155663548773374 0.3 0  1.131921292279077 0.3 0  1.108257802159295 0.3 0  1.084672829009693 0.3 0  1.061166115303374 0.3 0  1.037737392995421 0.3 0  1.01438640299116 0.3 0  0.991112899770314 0.3 0  0.9679166155523955 0.3 0  0.944797284182564 0.3 0  0.921754678526042 0.3 0  0.8987885143602501 0.3 0  0.8758985548820624 0.3 0  0.8530845484099929 0.3 0  0.8303462351786988 0.3 0  0.8076833651172373 0.3 0  0.7850956864865304 0.3 0  0.7625829601354557 0.3 0  0.7401449314598274 0.3 0  0.717781337993959 0.3 0  0.6954919649675473 0.3 0  0.6732765357561226 0.3 0  0.6511348120768439 0.3 0  0.6290665642016573 0.3 0  0.6070715355430467 0.3 0  0.5851494825775325 0.3 0  0.5633001690203812 0.3 0  0.5415233562273221 0.3 0  0.5198187909431873 0.3 0  0.4981862401387795 0.3 0  0.4766254686134248 0.3 0  0.4551362360485234 0.3 0  0.4337182975262159 0.3 0  0.4123714223228037 0.3 0  0.3910953802377493 0.3 0  0.3698899313205595 0.3 0  0.3487548463710963 0.3 0  0.3276898864081783 0.3 0  0.3066948129116018 0.3 0  0.2857694003037476 0.3 0  0.2649134227095047 0.3 0  0.2441266417321288 0.3 0  0.2234088223399122 0.3 0  0.2027597568977288 0.3 0  0.1821792020676698 0.3 0  0.1616669305402443 0.3 0  0.1412227158799362 0.3 0  0.12084633013886 0.3 0  0.1005375673448281 0.3 0  0.08029618164595353 0.3 0  0.06012194778526769 0.3 0  0.04001466495039718 0.3 0  0.01997408913631205 0.3 0  0 0.2800000000000553 0  0 0.2600000000001105 0  0 0.2400000000001658 0  0 0.2200000000002211 0  0 0.2000000000002764 0  0 0.1800000000002244 0  0 0.1600000000001691 0  0 0.140000000000115 0  0 0.1200000000000564 0  1.13346801534201 0.01255848438672509 0  1.003577645172735 0.09351054173913405 0  0.9777559943702486 0.1034978156913738 0  0.9524533750752109 0.1040889939962738 0  0.9296242411226409 0.1041520033606139 0  0.9046110503652111 0.104409422380137 0  0.8777709649694228 0.1053360318797398 0  0.8483859145648608 0.1061007868330701 0  0.8162363822948977 0.1052777104363292 0  0.7893110024210437 0.1060761643971561 0  0.7587949382612539 0.1067265405088633 0  0.7280603867732535 0.1069398153264939 0  0.6947001989413015 0.1075609887579097 0  0.6590363283767549 0.1076715322596598 0  0.6210028614493155 0.1072970410408442 0  1.1953125 0.01353164693413185 0  1.258193991486058 0.01269648635163345 0  1.3201967268638 0.01407907077719561 0  1.383538555392096 0.01434101079053473 0  1.445312500000001 0.01303671693628424 0  1.508925448095738 0.01398525724792267 0  0.9939176689634008 0.1034638089837981 0  1.120967497222226 0.2796788492172345 0  1.572835902117391 0.01424132418857359 0  1.637573277451887 0.01212536916586023 0  1.709730776795181 0.01466855431023635 0  1.005631976950563 0.07074019818158772 0  1.784944696816299 0.01454708406461822 0  0.5805605730631225 0.1101465090472147 0  1.855621181165637 0.01550931272897607 0  0.5366111276616774 0.1096761308243709 0  1.935200147913231 0.01760344159641829 0  1.214922267975168 0.2799787705802257 0  1.31178773425331 0.2792
[...]
<PointData  Scalars="pressure"> 
<DataArray  type="Float64"  Name="pressure"  format="ascii">1.6178324369011191e-01  -1.6486241197131699e-01  -2.1980806992142354e-01  -1.6330273619486799e-01  -4.3714017195895370e-02  0.0000000000000000e+00  0.0000000000000000e+00  1.6178961636648839e-01  1.5585712104194657e-01  1.5002649564386561e-01  1.4428980403901173e-01  1.3864552234103128e-01  1.3309213958663615e-01  1.2762817784621355e-01  1.2225220157807180e-01  1.1696274588740974e-01  1.1175841478011332e-01  1.0663782170929477e-01  1.0159956727258561e-01  9.6642304102714655e-02  9.1764718354854460e-02  8.6965455836518893e-02  8.2243222064446772e-02  7.7596799026524568e-02  7.3024809979233593e-02  6.8526060916644913e-02  6.4099316176336865e-02  5.9743291290368185e-02  5.5456823678823090e-02  5.1238783821166846e-02  4.7087849952242918e-02  4.3002939955759038e-02  3.8982791510212743e-02  3.5026310601307238e-02  3.1132453672799449e-02  2.7299979446007046e-02  2.3527728503548673e-02  1.9814659824756008e-02  1.6159661040041857e-02  1.2561566659987571e-02  9.0193892970967231e-03  5.5319306206195159e-03  2.0981816075571849e-03  -1.2830022307755294e-03  -4.6126731660909893e-03  -7.8915344118723994e-03  -1.1121294273117163e-02  -1.4302598683794481e-02  -1.7436526629669737e-02  -2.0524309927520322e-02  -2.3566945061411246e-02  -2.6564914790395692e-02  -2.9520134996006784e-02  -3.2433123608916176e-02  -3.5304964728751949e-02  -3.8136752732573186e-02  -4.0929453466403226e-02  -4.3684081702157297e-02  -4.6401771461795152e-02  -4.9083434721943389e-02  -5.1730010674457108e-02  -5.4342425202653331e-02  -5.6922160719306288e-02  -5.9469633175983722e-02  -6.1986048669759916e-02  -6.4472065161214342e-02  -6.6929552392929956e-02  -6.9358967133456517e-02  -7.1760588956716137e-02  -7.4136037130289975e-02  -7.6486782320453348e-02  -7.8812619190440622e-02  -8.1115449080833138e-02  -8.3395982648184500e-02  -8.5654528237246494e-02  -8.7892553015013516e-02  -9.0110912697607431e-02  -9.2310479319157049e-02  -9.4492853255625398e-02  -9.6658153414248285e-02  -9.8806858797808109e-02  -1.0093957027265961e-01  -1.0305938458015219e-01  -1.0516553518428197e-01  -1.0725864094245201e-01  -1.0934038185931441e-01  -1.1141110871585756e-01  -1.1347166389263741e-01  -1.1552299523658344e-01  -1.1756672471444875e-01  -1.1960323133019965e-01  -1.2163263679352926e-01  -1.2365690607770967e-01  -1.2567669505696313e-01  -1.2769282904480686e-01  -1.2970626793469273e-01  -1.3171780779804423e-01  -1.3372852185514827e-01  -1.3573942183010596e-01  -1.3775155003097778e-01  -1.3976557620453589e-01  -1.4178249744767241e-01  -1.4379853105367732e-01  -1.4579074585701862e-01  -1.4813904816415011e-01  -1.4845233604993280e-01  -1.5107782738280368e-01  -1.4456065525833811e-01  -1.5013103818418236e-01  -1.4937682650921541e-01  -2.0578926272230122e-01  -1.8381133228741586e-01  -1.7715370722223472e-01  -1.7233447747378086e-01  -1.6909226470713146e-01  -1.6666390392488539e-01  -1.6484867884989990e-01  -1.6352272568457790e-01  -1.6273013636475717e-01  -1.6254115885916748e-01  -1.6295105495492168e-01  -1.6374305522258492e-01  -1.6412108843537934e-01  -1.6392101804495501e-01  -1.6325820506598224e-01  -1.6222373881531613e-01  -1.6086184744105197e-01  -1.5915817042953037e-01  -1.5710037429591328e-01  -1.5471751649003224e-01  -1.5202690195363844e-01  -1.4903253861184065e-01  -1.4574795029844853e-01  -1.4218393807504387e-01  -1.3835225307251794e-01  -1.3427272721639938e-01  -1.2995772247896775e-01  -1.2541907556672835e-01  -1.2067440205831963e-01  -1.1574179204189516e-01  -1.1063093737317543e-01  -1.0537113138152422e-01  -9.9979399455460999e-02  -9.4470898770202011e-02  -8.8875314983522594e-02  -8.3210413196982386e-02  -7.7504263956988131e-02  -7.1778671903818730e-02  -6.6055465998019952e-02  -6.0365532665564228e-02  -5.4729168773057495e-02  -4.9171877060562481e-02  -3.8279280764375936e-02  -3.2952579108052424e-02  -2.7743238730612074e-02  -2.2685508377830083e-02  -1.7806871217527741e-02  -1.3109128831520021e-02  -8.6209473911684313e-03  -4.3479510210155323e-03  -3.3887086531671023e-04  3.4287690626696654e-03  6.9529897057473517e-03  1.0211926639578425e-02  1.3206867558808845e-02  1.5943468583915064e-02  1.8424603010908685e-02  2.0654468751358665e-02  2.2647431028111602e-02  2.4403125530507334e-02  2.5935597717810541e-02  2.7274522428168812e-02  2.8408023686121987e-02  2.9366021380548290e-02  3.0161888431725268e-02  3.0803676382483956e-02  3.1312695916618033e-02  3.1693490712517806e-02  3.1977709552349944e-02  3.2155619006254417e-02  3.2248740021400150e-02  3.2262131934832995e-02  3.2203863493099116e-02  3.2083774599476547e-02  3.1911531538150906e-02  3.1691530560460195e-02  3.1424636911092020e-02  3.1118480387138468e-02  3.0773909816306986e-02  3.0393927000261070e-02  2.9979788851974023e-02  2.9532069542093160e-02  2.9051300184566791e-02  2.8537535905146346e-02  2.7989600885372903e-02  2.7407954180216128e-02  2.6790094693349410e-02  2.6134752025941316e-02  2.5443201371405808e-02  2.4710533610153951e-02  2.3934793211223989e-02  2.3120514371679900e-02  2.2258026747623550e-02  2.1354556861609635e-02  2.0399473725367018e-02  1.9401796077588060e-02  1.8353618592433910e-02  1.7251186052909102e-02  1.6105019007547714e-02  1.4900827420574258e-02  1.3650086503299338e-02  1.2346616564807756e-02  1.0989397711418068e-02  9.5783719250594583e-03  8.1156477571658909e-03  6.6044619517021449e-03  5.0353407522731640e-03  3.4258262190703949e-03  1.7597339779377192e-03  0.0000000000000000e+00  0.0000000000000000e+00  0.0000000000000000e+00  0.0000000000000000e+00  0.0000000000000000e+00  0.0000000000000000e+00  0.0000000000000000e+00  0.0000000000000000e+00  0.0000000000000000e+00  1.9075133955380348e-03  3.6871754979500250e-03  5.4387308129628161e-03  7.1367125589491542e-03  8.7848866809461922e-03  1.0381885569181314e-02  1.1926704886491406e-02  1.3417567164288506e-02  1.4851538879232122e-02  1.6226322035528238e-02  1.7537837092120270e-02  1.8783512972258876e-02  1.9958209043805693e-02  2.1058848016037687e-02  2.2080545229493351e-02  2.3016584744348586e-02  2.3866591906552510e-02  2.4619317085830643e-02  2.5270066790034063e-02  2.5812662246434654e-02  2.6240188689184325e-02  2.6546058769624684e-02  2.6724547628351497e-02  2.6764821787650755e-02  2.6665683538447581e-02  2.6415040674755346e-02  2.6011024119160252e-02  2.5442323024381892e-02  2.4703902770955240e-02  2.3793258253839402e-02  2.2699670070494372e-02  2.1417810228288956e-02  1.9962858053985490e-02  1.8320675976687080e-02  1.6465075718887778e-02  1.4436261992313085e-02  1.2211798170973264e-02  9.7918156913847209e-03  7.1782600244734325e-03  4.3785786850888816e-03  1.3840831930087884e-03  -1.7911765484754812e-03  -5.1559789586755238e-03  -8.6994611952563444e-03  -1.2433063886140761e-02  -1.6339869794958828e-02  -2.0421654798747763e-02  -2.4668081442750324e-02  -2.9083007229010138e-02  -3.3651360945983637e-02  -3.8369608294485207e-02  -4.3225615284711798e-02  -4.8204593743405681e-02  -5.3297255888949256e-02  -5.8487234864390697e-02  -6.3748940929494846e-02  -6.9019003504999940e-02  -7.4349194362937368e-02  -7.9648402982732472e-02  -8.4853864276077010e-02  -8.9971114858586262e-02  -9.4925471980367049e-02  -9.9696505984660969e-02  -1.0417580501969448e-01  -1.0835527067179526e-01  -1.1212312477075130e-01  -1.1546697148441581e-01  -1.1827332506774364e-01  -1.2054726247431952e-01  -1.2215559650131079e-01  -1.2311574054244430e-01  -1.2335944860391902e-01  -1.2276587583410861e-01  -1.2151221981068355e-01  -1.1947890188011849e-01  -1.1668470847058274e-01  -1.1325652139228903e-01  -1.0922771827743380e-01  -1.0472450537991597e-01  -9.9816992112965255e-02  -9.4509708955799382e-02  -8.8930286797032590e-02  -8.3116140367908306e-02  -7.7151719396509513e-02  -7.1041714119532001e-02  -6.4811719641656884e-02  -5.8509071497721984e-02  -5.2145591438817973e-02  -4.5731367315539430e-02  -3.9287595102101822e-02  -3.2818881795050707e-02  -2.6341653901104493e-02  -1.9858527243523334e-02  -1.3371824429782532e-02  -6.8917670383364807e-03  -4.1945466042273428e-04  6.0440220559866151e-03  1.2495566876751985e-02  1.8932420315051286e-02  2.5353558500826351e-02  3.1758522941789158e-02  3.8145957204203683e-02  4.4515698458778244e-02  5.0866324354652021e-02  5.7198155454737928e-02  6.3510556081585373e-02  6.9803292023376012e-02  7.6076286139048821e-02  8.2329271969539861e-02  8.8562213272931498e-02  9.4775086871719663e-02  1.0096781429996324e-01  1.0714038055631986e-01  1.1329279359483899e-01  1.1942507124860202e-01  1.2553720244847411e-01  1.3162925696361591e-01  1.3770126157849111e-01  1.4375324972318038e-01  1.4978527637067807e-01  1.5579738092173293e-01  1.6178959173025001e-01  1.6178932679548655e-01  1.6178867988239853e-01  1.6178766447083917e-01  1.6178643112305549e-01  1.6178519650295803e-01  1.6178417896935210e-01  1.6178352774520199e-01  1.6178326376081326e-01  -1.5554736780568407e-01  -1.8853406440498213e-01  -1.5177145647575419e-01  -1.3876873074393153e-01  -1.2878525605773153e-01  -1.1865167900258156e-01  -1.0846569302629859e-01  -9.7897210916797622e-02  -8.6839159218689038e-02  -7.7888507006219465e-02  -6.7987646640723806e-02  -5.8211484585137953e-02  -4.7763628794714803e-02  -3.6728341671584397e-02  -2.5068151464831531e-02  -1.4382212370534717e-01  -1.2756090015134910e-01  -1.0813258362621760e-01  -8.5974233303591358e-02  -6.3471420656895622e-02  -4.1015147076706969e-02  -1.6346237642326045e-01  -1.2208362849147300e-01  -2.0628824697741716e-02  -3.2932414488841114e-03  1.1295159757565299e-02  -1.6858560035149514e-01  2.1596918923204790e-02  -1.2755699583416122e-02  2.7443800688348161e-02  5.5992324371343521e-04  3.0827177698912037e-02  -1.1323228054780485e-01  -9.6672810850353758e-02  3.2085618771266776e-02  -7.6555533901135814e-02  1.4361103125514160e-02  -5.0337483977848679e-02  3.1904152863222124e-02  2.9214924647671472e-02  -1.6105994214883215e-01  3.0871508102309837e-02  -2.6634369178844781e-02  -1.2167328117001326e-01  4.4613414183693627e-02  2.9238406163211012e-02  -3.4093829535281656e-03  6.2108258769159465e-02  5.6459238540909687e-03  2.7033059772801342e-02  1.3431417415266975e-02  7.9397691504108345e-02  -1.1469643106515322e-01  2.4334308749417354e-02  1.9134649251849246e-02  -1.0217391132143025e-01  2.3258896580604940e-02  2.0856167217386364e-02  -8.6025056406728875e-02  9.9596816477032904e-02  1.1361351803861271e-01  -1.4269423821709835e-02  1.7770991654710366e-02  1.4102803430942530e-02  2.5658339489975639e-02  -6.8137937512598334e-02  2.6643621381734438e-02  -1.4477504324613358e-01  -4.2954746113552898e-02  2.5927745516218174e-02  1.3106503597347374e-01  -2.3139327377420849e-02  1.0254806971627872e-02  2.3374410235556552e-02  -3.5351571495227637e-03  2.2310027293634269e-02  2.0440640142696774e-02  5.4032799390110180e-02  1.6823803439315766e-02  7.2996054534648760e-02  9.1774629728118659e-02  1.2628329021369069e-02  1.2337547294407536e-01  1.5979191908380679e-03  1.5620639874135683e-01  -1.6372876863337643e-01  8.0558745067741116e-03  5.6977452379773797e-03  1.4117824928150691e-01  -1.7519121714501254e-01  -1.6309640766701666e-01  -1.1881601633446533e-01  -5.5236325406059730e-02  8.7754009089723549e-03  3.4619815767099708e-02  1.4151920317845643e-01  -4.0908273421064067e-02  -6.5656235737117694e-02  -8.6778853798970629e-02  -1.0560453034928377e-01  8.9659573085484653e-02  2.6442571050112322e-02  7.0487699944286303e-02  1.0401664072302833e-01  2.4857993117905135e-02  2.2680895343625062e-02  5.2787978626002069e-02  2.5681017873007212e-02  2.8218576116915195e-02  3.7253819401391060e-02  3.0124482112106565e-02  3.1477108363484323e-02  3.2125593492079794e-02  3.1702492773214901e-02  -3.0706779702248391e-02  2.1669627744795826e-02  2.9453350506307791e-02  2.4861657113673736e-02  7.2927242002584804e-03  1.7064902745228323e-02  4.8140227277282182e-03  -1.1097534698513947e-02  1.3336207138213065e-03  -6.6153405689798276e-03  -1.8533596339063603e-02  1.5654651977468326e-01  -3.0667169217003094e-02  -4.2317199939070092e-02  -5.3050332439438373e-02  -6.3339391445175156e-02  -7.3020462053720273e-02  -8.2179635928770714e-02  -1.5014764408696255e-01  -9.3441227162401524e-02  -1.0415964437496611e-01  -1.1456115165593880e-01  -1.3624655755114368e-01  -1.2481165738214064e-01  -9.7550702382363519e-02  -1.1775050470151578e-01  -7.5702987250787168e-02  -5.2254423566768592e-02  -1.3482811554572000e-01  -1.5002123055512698e-01  1.6759016681892566e-03  1.5604932759113394e-01  4.4921478758249249e-03  -1.6351615098047495e-01  1.5679860973781193e-01  1.3604163661065215e-03  1.5269359585505268e-01  -1.6348791270124846e-01  -1.6315123083486355e-01  -1.6269753485302699e-01  -1.6319298135600777e-01  -1.6272138742524972e-01  -1.6354540744952029e-01  -1.6289322449704891e-01  -1.6400265469298561e-01  -1.6317986913057350e-01  -1.6432912572507730e-01  -1.6338761432959345e-01  -1.6426152040828257e-01  -1.6312585875943930e-01  -1.6363351571357451e-01  -1.6236275622410656e-01  -1.6254202780910959e-01  -1.6109990869705812e-01  -1.6103740872484518e-01  -1.5943008619044940e-01  -1.5892920519695014e-01  -1.5703977916534420e-01  -1.6056553703003115e-01  -1.5763665858383882e-01  -1.5486504994251621e-01  -1.5771864003031499e-01  -1.5958444451057988e-01  -1.5521921373450442e-01  -1.5232000582667804e-01  -1.5259344303000030e-01  -1.4933636711465414e-01  -1.4949080691942399e-01  -1.4591646277411979e-01  -1.4599126563679890e-01  -1.4235346772236981e-01  -1.4209273941903108e-01  -1.3772501358319655e-01  -1.3757698367373344e-01  -1.3339538693800060e-01  -1.3282211235804325e-01  -1.2848087019702878e-01  -1.2767237450996624e-01  -1.2324082764094733e-01  -1.2221161700826576e-01  -1.1773585056015340e-01  -1.1644679437635770e-01  -1.1199490204452638e-01  -1.1041074669293645e-01  -1.0602989356644472e-01  -1.0416555598894961e-01  -9.9921274000885033e-02  -9.7719787781554282e-02  -9.3703746773275393e-02  -9.1061147018250896e-02  -1.5559497433597744e-01  -1.5718638598533194e-01  -8.7389064647625345e-02  -8.4326172883249992e-02  -8.1069718604261390e-02  -7.8013289026489921e-02  -7.4823697236606632e-02  -7.1426294681488034e-02  -6.8667060193626728e-02  -6.4949227265076251e-02  -1.5110927566097621e-01  -6.2713754007917316e-02  -5.8574833765939062e-02  -5.6637803694951354e-02  -5.2315504413564098e-02  -5.1007670269721590e-02  -4.6330907083072935e-02  -1.5238653398624671e-01  -1.5398667700276439e-01  -1.6475905840282323e-01  -4.5486535355063681e-02  -4.0528455335654606e-02  -4.0234755928835249e-02  -3.4997367948714601e-02  -3.5232186696745167e-02  -2.9772503323868785e-02  -1.6066293430735468e-01  -3.0499083702234756e-02  -2.4821374756976662e-02  -1.4154380296068697e-01  -2.6022186436907332e-02  -2.0194163048983624e-02  -2.1836272788096953e-02  -1.5885187538649041e-02  -1.7861876868631523e-02  -1.1886245785306292e-02  -1.6173344342070933e-01  -1.2828658995430309e-01  -1.4219910382409412e-02  -8.2007816718775300e-03  -1.4815195654591132e-01  -1.4895985701711106e-01  -1.4688903725023061e-01  -1.1258098977982402e-01  -1.0771460726956551e-02  -4.6686374928761095e-03  -7.6671827072380501e-03  -1.4921692325624400e-03  -4.7190144648028573e-03  1.2638639741742485e-03  -4.1475145483856619e-02  -2.0049412298770494e-03  -2.4349070077774725e-02  -6.0907434876634164e-02  -1.9878881744708229e-03  3.7914177190048041e-03  7.0227782415532387e-03  9.4045676533899714e-03  6.1551917005659160e-03  1.1555109308737987e-02  8.3828443261424346e-03  1.3563349774460968e-02  1.0395187113177008e-02  1.5316821070074949e-02  1.2238553873906838e-02  1.6930878588191364e-02  1.3972160491917018e-02  1.8351541960847477e-02  1.5476895326899744e-02  1.9648710219117595e-02  1.6978601002196714e-02  2.0935868589721830e-02  1.8320800234884773e-02  2.1995428169303808e-02  1.9584753741336482e-02  2.2918666749542273e-02  2.0598906994714165e-02  2.3759020755685471e-02  -8.0960541268318101e-02  -9.5651704837788787e-02  2.1635323881492519e-02  2.4471306024848195e-02  2.2619455347654686e-02  2.5148115718839254e-02  -1.4877309743367262e-01  -1.1434431002421096e-01  2.3498365768548010e-02  2.5711232093967706e-02  -1.3131706926979989e-01  -7.8346520484084956e-02  -1.4300648568334207e-01  -1.4332149091956181e-01  -1.4993042343954174e-01  -1.4315328636086053e-01  -1.4848000794100258e-01  -1.4220062423735769e-01  -1.4759624432603666e-01  -1.4065874823218491e-01  -1.4419522588326217e-01  -1.3816983315218623e-01  -1.4172642286689802e-01  -1.3537452074523454e-01  -1.3741151056631171e-01  -1.3204792810589239e-01  -1.3345275641030774e-01  -1.2864297446619175e-01  -1.2950630702937277e-01  -1.2506891278252921e-01  -1.2558957667435650e-01  -1.2148216499001260e-01  -1.2169512629607550e-01  -1.1784493839493422e-01  -1.1784917275930538e-01  -1.1421020906004080e-01  -1.1403373421397206e-01  -1.1061684879657394e-01  -1.0992902915368073e-01  -1.0676815793931387e-01  -1.0711918988703413e-01  -1.0350237231119835e-01  -1.0309914214885896e-01  -9.9893217683204805e-02  -9.9515528214701512e-02  -9.6330609936441422e-02  -9.5720473245887158e-02  -9.2716322573859727e-02  -1.2708199111530438e-01  -1.0341446028548662e-01  -1.1720239228438933e-01  -9.2056649224906084e-02  -8.9024968686409647e-02  -8.9465188881772031e-02  -8.5930839192556951e-02  -8.5293712570812585e-02  -8.2314392038076889e-02  -8.1519017215265305e-02  -7.8648765546998914e-02  -7.7760608298951137e-02  -7.4932080911531543e-02  -8.2220170895169878e-02  -1.5330625420034219e-01  -1.4252771959011790e-01  -7.4063350051655444e-02  -7.1156728200375136e-02  -7.1992005480524632e-02  -6.8214956715544756e-02  -6.7357230821578531e-02  -6.4454776440156750e-02  -6.3502519139888386e-02  -6.0672718223180502e-02  -1.3384163974544222e-01  -6.5052911884217565e-02  -5.9671484766333591e-02  -5.6905119847890498e-02  -1.2544319232341364e-01  -5.5954385665921577e-02  -5.3084189182805643e-02  -5.4312522569337614e-02  -5.0165984436834773e-02  -4.9153915356663129e-02  -4.6118421420221274e-02  -4.7094012096179264e-02  -4.3042998153588113e-02  -4.2089299728824560e-02  -3.9002416214373573e-02  -3.8045734900258067e-02  -3.4869993974676501e-02  -3.5853997633640992e-02  -3.1721201408797674e-02  -3.0712852906638572e-02  -2.7585817082916287e-02  -2.6621050032801713e-02  -2.3470013066297812e-02  -1.3738100405003270e-01  -1.0264876391413801e-01  -1.1732906217961425e-01  -2.2602936057047798e-02  -1.9387429781185760e-02  -2.0268114804950024e-02  -1.6029942495106250e-02  -1.5157919437555388e-02  -1.1798705684932107e-02  -1.6909766896135596e-02  2.4199115676310938e-02  2.6182811193192854e-02  2.4840212101545828e-02  2.6586202162340630e-02  2.5415623434467662e-02  2.6916052596093188e-02  -8.4536934815564430e-02  -5.0388182729181018e-02  -1.6456712143538060e-01  -1.0897878147072363e-02  -7.6041261206095129e-03  -9.4961704840507699e-02  2.1374521825971562e-02  2.5858289326554863e-02  1.2095030839805627e-02  2.5899219881094171e-02  2.7163784519626949e-02  2.8267486667903002e-02  2.8291937121878982e-02  2.7335697223954059e-02  2.8263099001262441e-02  2.7440019913365608e-02  2.8174421358993486e-02  2.7460731516901506e-02  2.8016929977497457e-02  2.7408744198417524e-02  2.7801136938388607e-02  2.7272013829773165e-02  2.7512884084126606e-02  2.7058068925190436e-02  2.7164715540450610e-02  2.6771269654650834e-02  2.6754531099853096e-02  2.6414714824942773e-02  2.6285099590751031e-02  2.5978289433672273e-02  2.5740720223043488e-02  2.5459238549428043e-02  2.5144926985374919e-02  2.4862157474039175e-02  2.4461433829386536e-02  2.4205121846790946e-02  2.3737889239524433e-02  2.3454263592072144e-02  2.2928171514078534e-02  2.2644922264967952e-02  2.2070577048101139e-02  2.7816179343116500e-02  -3.2772606827445906e-02  -6.6442144290682278e-02  -6.5833917647920865e-03  -3.3009931351560616e-03  -4.3134264267377185e-03  1.4241300749970613e-04  -9.1465440518475152e-04  3.6457875078450080e-03  4.5808511989421487e-03  8.1048664813978214e-03  9.1581085081634955e-03  1.2655474578917034e-02  1.1699706689693896e-02  1.6239080348730214e-02  1.7051471329743512e-02  2.0742607735450003e-02  2.1539800496690614e-