<?xml version="1.0"?>
<VTKFile type="UnstructuredGrid"  version="0.1"  >
<UnstructuredGrid>
<Piece  NumberOfPoints="2886" NumberOfCells="5412">
<Points>
<DataArray  type="Float64"  NumberOfComponents="3"  format="ascii">0 0.1 0  0.98 0.1 0  1 0.1 0  1 0 0  1.5 0 0  3 0 0  3 0.3 0  0 0.3 0  0.01975375321854102 0.1 0  0.03918897458218897 0.1 0  0.05831079002627837 0.1 0  0.07712425666319796 0.1 0  0.0956343475259058 0.1 0  0.1138459546796227 0.1 0  0.1317638870668193 0.1 0  0.1493928840275937 0.1 0  0.1667376092280033 0.1 0  0.1838026357802664 0.1 0  0.2005924801287244 0.1 0  0.2171115811543574 0.1 0  0.2333643037107681 0.1 0  0.2493549444060462 0.1 0  0.2650877293306821 0.1 0  0.2805668058011438 0.1 0  0.2957962848620976 0.1 0  0.3107801766802674 0.1 0  0.3255224447361181 0.1 0  0.3400269848175519 0.1 0  0.3542976327080778 0.1 0  0.3683381609158136 0.1 0  0.3821522744564845 0.1 0  0.3957436316838916 0.1 0  0.4091158196437086 0.1 0  0.4222723742184605 0.1 0  0.4352167733293057 0.1 0  0.4479524348643424 0.1 0  0.4604827295467524 0.1 0  0.4728109659990664 0.1 0  0.4849404035409129 0.1 0  0.4968742471455402 0.1 0  0.508615651843175 0.1 0  0.520167721130924 0.1 0  0.5315335063628542 0.1 0  0.5427160117228604 0.1 0  0.5537181940261912 0.1 0  0.564542961924507 0.1 0  0.575193173270606 0.1 0  0.5856716438765114 0.1 0  0.5959811458006617 0.1 0  0.6061243988680743 0.1 0  0.6161040893285659 0.1 0  0.6259228503970299 0.1 0  0.6355832809287655 0.1 0  0.6450879281079505 0.1 0  0.6544393102991295 0.1 0  0.663639896558931 0.1 0  0.6726921201956305 0.1 0  0.6815983691630338 0.1 0  0.6903610031396646 0.1 0  0.6989823343332418 0.1 0  0.7074646404270378 0.1 0  0.7158101645005117 0.1 0  0.7240211149852543 0.1 0  0.7320996585612525 0.1 0  0.7400479319727645 0.1 0  0.7478680336617921 0.1 0  0.755562036504958 0.1 0  0.7631319665092091 0.1 0  0.7705798279317605 0.1 0  0.777907588066146 0.1 0  0.7851171851013118 0.1 0  0.7922105226004981 0.1 0  0.7991894774550319 0.1 0  0.8060558928136696 0.1 0  0.812811583201334 0.1 0  0.8194583352091183 0.1 0  0.8259979035038147 0.1 0  0.8324320194413813 0.1 0  0.8387623808293405 0.1 0  0.8449906627004957 0.1 0  0.8511185094880469 0.1 0  0.8571475426008311 0.1 0  0.8630793533568246 0.1 0  0.8689155114558531 0.1 0  0.8746575581239063 0.1 0  0.8803070109173519 0.1 0  0.885865363938836 0.1 0  0.8913340851680313 0.1 0  0.8967146206523592 0.1 0  0.9020083930695622 0.1 0  0.9072167995950768 0.1 0  0.9123412183131177 0.1 0  0.9173830029719022 0.1 0  0.9223434865647732 0.1 0  0.9272239785872722 0.1 0  0.9320257720706087 0.1 0  0.9367501330378739 0.1 0  0.9413983102716995 0.1 0  0.9459715351562933 0.1 0  0.9504710127113115 0.1 0  0.9548979346500661 0.1 0  0.9592534708344373 0.1 0  0.9635387708980176 0.1 0  0.9677549682252325 0.1 0  0.971903177251235 0.1 0  0.9759844952956497 0.1 0  0.9840000000000086 0.1 0  0.987999999999974 0.1 0  0.9919999999999393 0.1 0  0.9959999999999913 0.1 0  1 0.09591793123533533 0  1 0.09133596463859224 0  1 0.08619288104391448 0  1 0.08041996484521211 0  1 0.07394008421771697 0  1 0.06666666567302955 0  1 0.05850252932209174 0  1 0.04933859630113544 0  1 0.03905242821848202 0  1 0.02750659386753798 0  1 0.01454683679239736 0  1.015625 0 0  1.03125 0 0  1.046875 0 0  1.0625 0 0  1.078125 0 0  1.09375 0 0  1.109375 0 0  1.125 0 0  1.140625 0 0  1.15625 0 0  1.171875 0 0  1.1875 0 0  1.203125 0 0  1.21875 0 0  1.234375 0 0  1.25 0 0  1.265625 0 0  1.28125 0 0  1.296875 0 0  1.3125 0 0  1.328125 0 0  1.34375 0 0  1.359375 0 0  1.375 0 0  1.390625 0 0  1.40625 0 0  1.421875 0 0  1.4375 0 0  1.453125 0 0  1.46875 0 0  1.484375 0 0  1.515920751924515 0 0  1.531989369316721 0 0  1.54820720925872 0 0  1.564575665560501 0 0  1.581096138674279 0 0  1.597770029901263 0 0  1.614598783332311 0 0  1.631583831055205 0 0  1.64872661129721 0 0  1.666028606716533 0 0  1.683491276608443 0 0  1.701116134125304 0 0  1.718904673324128 0 0  1.736858414799339 0 0  1.754978895814663 0 0  1.773267661782904 0 0  1.791726281103402 0 0  1.810356325314689 0 0  1.8291593848892 0 0  1.848137076690385 0 0  1.867291007717254 0 0  1.886622833871288 0 0  1.90613418642363 0 0  1.925826753299799 0 0  1.945702199101513 0 0  1.96576223584749 0 0  1.986008569283268 0 0  2.006442931928877 0 0  2.02706707547783 0 0  2.047882750887917 0 0  2.06889175187935 0 0  2.090095860038271 0 0  2.111496891648636 0 0  2.133096679109554 0 0  2.154897066851056 0 0  2.176899916687499 0 0  2.199107102752146 0 0  2.22152053937028 0 0  2.244142122958061 0 0  2.266973806444078 0 0  2.290017523268154 0 0  2.313275249499252 0 0  2.336748971745516 0 0  2.360440702338606 0 0  2.384352453384031 0 0  2.408486280477412 0 0  2.432844240041185 0 0  2.457428414757088 0 0  2.482240901796653 0 0  2.507283830121838 0 0  2.532559332080812 0 0  2.558069568787417 0 0  2.583816724966441 0 0  2.60980299606584 0 0  2.636030600971886 0 0  2.662501790984011 0 0  2.689218818279327 0 0  2.716183964547616 0 0  2.743399548861297 0 0  2.77086788244719 0 0  2.798591312896326 0 0  2.826572223178268 0 0  2.854812990138617 0 0  2.883316031690714 0 0  2.912083780657189 0 0  2.941118704633482 0 0  2.970423276998917 0 0  3 0.02999999999994495 0  3 0.05999999999987042 0  3 0.089999999999783 0  3 0.119999999999701 0  3 0.149999999999619 0  3 0.179999999999692 0  3 0.2099999999997737 0  3 0.2399999999998511 0  3 0.2699999999999185 0  2.970138294777171 0.3 0  2.940375666438236 0.3 0  2.910711782853056 0.3 0  2.881146331305122 0.3 0  2.851678975030285 0.3 0  2.822309388626621 0.3 0  2.793037250095074 0.3 0  2.76386223529133 0.3 0  2.734784017903872 0.3 0  2.705802289276642 0.3 0  2.676916713794697 0.3 0  2.648126987654635 0.3 0  2.619432780406184 0.3 0  2.590833779385199 0.3 0  2.562329669847737 0.3 0  2.533920134950189 0.3 0  2.505604855727852 0.3 0  2.477383539822502 0.3 0  2.449255847639465 0.3 0  2.421221492569094 0.3 0  2.393280152486815 0.3 0  2.36543151914496 0.3 0  2.337675285481809 0.3 0  2.310011142385583 0.3 0  2.282438797441587 0.3 0  2.254957931061538 0.3 0  2.227568248063605 0.3 0  2.200269436651085 0.3 0  2.173061204949961 0.3 0  2.145943251515011 0.3 0  2.118915272469994 0.3 0  2.091976978084957 0.3 0  2.065128060700849 0.3 0  2.038368218849433 0.3 0  2.01169717777258 0.3 0  1.985114624111908 0.3 0  1.958620267850966 0.3 0  1.93221382054972 0.3 0  1.905894991850698 0.3 0  1.879663489459713 0.3 0  1.853519019126419 0.3 0  1.827461291053897 0.3 0  1.801490031354372 0.3 0  1.775604937580312 0.3 0  1.74980572560258 0.3 0  1.724092118631866 0.3 0  1.698463829173586 0.3 0  1.672920575782554 0.3 0  1.647462076974085 0.3 0  1.622088043536933 0.3 0  1.5967981978949 0.3 0  1.571592267767068 0.3 0  1.546469970305736 0.3 0  1.521431023814044 0.3 0  1.496475156230927 0.3 0  1.471602093687753 0.3 0  1.446811560490646 0.3 0  1.422103279101731 0.3 0  1.397476971708191 0.3 0  1.37293238939876 0.3 0  1.348469231419202 0.3 0  1.324087248732772 0.3 0  1.299786165921677 0.3 0  1.275565710847046 0.3 0  1.251425617644257 0.3 0  1.227365618676339 0.3 0  1.203385446174014 0.3 0  1.179484853067473 0.3 0  1.155663548773374 0.3 0  1.131921292279077 0.3 0  1.108257802159295 0.3 0  1.084672829009693 0.3 0  1.061166115303374 0.3 0  1.037737392995421 0.3 0  1.01438640299116 0.3 0  0.991112899770314 0.3 0  0.9679166155523955 0.3 0  0.944797284182564 0.3 0  0.921754678526042 0.3 0  0.8987885143602501 0.3 0  0.8758985548820624 0.3 0  0.8530845484099929 0.3 0  0.8303462351786988 0.3 0  0.8076833651172373 0.3 0  0.7850956864865304 0.3 0  0.7625829601354557 0.3 0  0.7401449314598274 0.3 0  0.717781337993959 0.3 0  0.6954919649675473 0.3 0  0.6732765357561226 0.3 0  0.6511348120768439 0.3 0  0.6290665642016573 0.3 0  0.6070715355430467 0.3 0  0.5851494825775325 0.3 0  0.5633001690203812 0.3 0  0.5415233562273221 0.3 0  0.5198187909431873 0.3 0  0.4981862401387795 0.3 0  0.4766254686134248 0.3 0  0.4551362360485234 0.3 0  0.4337182975262159 0.3 0  0.4123714223228037 0.3 0  0.3910953802377493 0.3 0  0.3698899313205595 0.3 0  0.3487548463710963 0.3 0  0.3276898864081783 0.3 0  0.3066948129116018 0.3 0  0.2857694003037476 0.3 0  0.2649134227095047 0.3 0  0.2441266417321288 0.3 0  0.2234088223399122 0.3 0  0.2027597568977288 0.3 0  0.1821792020676698 0.3 0  0.1616669305402443 0.3 0  0.1412227158799362 0.3 0  0.12084633013886 0.3 0  0.1005375673448281 0.3 0  0.08029618164595353 0.3 0  0.06012194778526769 0.3 0  0.04001466495039718 0.3 0  0.01997408913631205 0.3 0  0 0.2800000000000553 0  0 0.2600000000001105 0  0 0.2400000000001658 0  0 0.2200000000002211 0  0 0.2000000000002764 0  0 0.1800000000002244 0  0 0.1600000000001691 0  0 0.140000000000115 0  0 0.1200000000000564 0  1.13346801534201 0.01255848438672509 0  1.003577645172735 0.09351054173913405 0  0.9777559943702486 0.1034978156913738 0  0.9524533750752109 0.1040889939962738 0  0.9296242411226409 0.1041520033606139 0  0.9046110503652111 0.104409422380137 0  0.8777709649694228 0.1053360318797398 0  0.8483859145648608 0.1061007868330701 0  0.8162363822948977 0.1052777104363292 0  0.7893110024210437 0.1060761643971561 0  0.7587949382612539 0.1067265405088633 0  0.7280603867732535 0.1069398153264939 0  0.6947001989413015 0.1075609887579097 0  0.6590363283767549 0.1076715322596598 0  0.6210028614493155 0.1072970410408442 0  1.1953125 0.01353164693413185 0  1.258193991486058 0.01269648635163345 0  1.3201967268638 0.01407907077719561 0  1.383538555392096 0.01434101079053473 0  1.445312500000001 0.01303671693628424 0  1.508925448095738 0.01398525724792267 0  0.9939176689634008 0.1034638089837981 0  1.120967497222226 0.2796788492172345 0  1.572835902117391 0.01424132418857359 0  1.637573277451887 0.01212536916586023 0  1.709730776795181 0.01466855431023635 0  1.005631976950563 0.07074019818158772 0  1.784944696816299 0.01454708406461822 0  0.5805605730631225 0.1101465090472147 0  1.855621181165637 0.01550931272897607 0  0.5366111276616774 0.1096761308243709 0  1.935200147913231 0.01760344159641829 0  1.214922267975168 0.2799787705802257 0  1.31178773425331 0.2792
[...]
<PointData  Scalars="pressure"> 
<DataArray  type="Float64"  Name="pressure"  format="ascii">1.6062166064740724e-01  -1.6490615676436368e-01  -2.1804336833927057e-01  -1.6238309250976274e-01  -4.1859307333483323e-02  0.0000000000000000e+00  0.0000000000000000e+00  1.6062842991539530e-01  1.5469553822575258e-01  1.4886490927912724e-01  1.4312820879875282e-01  1.3748391255552234e-01  1.3193050842053058e-01  1.2646651795853936e-01  1.2109050602181735e-01  1.1580100523067509e-01  1.1059661980567607e-01  1.0547596230018863e-01  1.0043763094161011e-01  9.5480277352094328e-02  9.0602587469534021e-02  8.5803203464220601e-02  8.1080829456194922e-02  7.6434248715452111e-02  7.1862076577657905e-02  6.7363119547938194e-02  6.2936139412446510e-02  5.8579845234590831e-02  5.4293074158348324e-02  5.0074696143164205e-02  4.5923378398310122e-02  4.1838039402550882e-02  3.7817406583808617e-02  3.3860385083990335e-02  2.9965929889094366e-02  2.6132789124227271e-02  2.2359794922474446e-02  1.8645903787811339e-02  1.4989996135318743e-02  1.1390895360260484e-02  7.8476125983827517e-03  4.3589344891481656e-03  9.2384692649709961e-04  -2.4588068453194451e-03  -5.7900866502558716e-03  -9.0706901595267869e-03  -1.2302368814122982e-02  -1.5485755157154942e-02  -1.8621947800711559e-02  -2.1712194166681822e-02  -2.4757501117162330e-02  -2.7758341918926680e-02  -3.0716684806921354e-02  -3.3633037310270460e-02  -3.6508501444031692e-02  -3.9344190493854708e-02  -4.2141080904423901e-02  -4.4900204500043402e-02  -4.7622718527200743e-02  -5.0309544485829166e-02  -5.2961636148456934e-02  -5.5579934131242251e-02  -5.8165963313474803e-02  -6.0720127926527506e-02  -6.3243664348355405e-02  -6.5737229874045025e-02  -6.8202773110640741e-02  -7.0640725815855371e-02  -7.3051363348525522e-02  -7.5436360818398551e-02  -7.7797236380043058e-02  -8.0133743888743281e-02  -8.2447867264892130e-02  -8.4740315452343742e-02  -8.7011397306075086e-02  -8.9262635513991856e-02  -9.1494906668480216e-02  -9.3709111446026852e-02  -9.5906910395573211e-02  -9.8088426243686397e-02  -1.0025411729152664e-01  -1.0240464286240189e-01  -1.0454323532236004e-01  -1.0666907662529088e-01  -1.0878282184235602e-01  -1.1088623690999477e-01  -1.1297969903858354e-01  -1.1506410046626826e-01  -1.1714046866498842e-01  -1.1921053165491335e-01  -1.2127471059730087e-01  -1.2333317912237261e-01  -1.2538807245423744e-01  -1.2744014861623762e-01  -1.2949035878249443e-01  -1.3153983679914932e-01  -1.3358955197689187e-01  -1.3564080860902650e-01  -1.3769489823002518e-01  -1.3975320786072690e-01  -1.4181694730099922e-01  -1.4388731155580572e-01  -1.4596273980771035e-01  -1.4802524506106704e-01  -1.5038457441943642e-01  -1.5109406119229923e-01  -1.5411051616555196e-01  -1.4931421286435398e-01  -1.5464744081655080e-01  -1.5309807307440321e-01  -2.0463074915593377e-01  -1.8286597232992510e-01  -1.7623773617504548e-01  -1.7142824465865023e-01  -1.6818754518923365e-01  -1.6575802727119512e-01  -1.6394018618752904e-01  -1.6261052894790673e-01  -1.6181418894932148e-01  -1.6162217467585818e-01  -1.6203092800734312e-01  -1.6282398211418014e-01  -1.6320106693521297e-01  -1.6299866878252450e-01  -1.6233215834713241e-01  -1.6129238562335982e-01  -1.5992322909348916e-01  -1.5820983962000476e-01  -1.5613950904008550e-01  -1.5374115684015766e-01  -1.5103195585810117e-01  -1.4801571821277035e-01  -1.4470590425771601e-01  -1.4111328125165806e-01  -1.3724958956113828e-01  -1.3313482776311245e-01  -1.2878151103599927e-01  -1.2420164479691299e-01  -1.1941314749066236e-01  -1.1443448136746043e-01  -1.0927569572692120e-01  -1.0396660319148394e-01  -9.8524860504064421e-02  -9.2966061754593668e-02  -8.7320710169625143e-02  -8.1607012844128982e-02  -7.5854091137372584e-02  -7.0084184235706934e-02  -6.4319861762770589e-02  -5.8592782719229387e-02  -5.2923819247754279e-02  -4.7339079716552629e-02  -3.6408457598176638e-02  -3.1072251473412669e-02  -2.5860232073591290e-02  -2.0807113982080440e-02  -1.5940427780953181e-02  -1.1262129065285384e-02  -6.8003786266546112e-03  -2.5607043619416364e-03  1.4077421122659383e-03  5.1286637860506043e-03  8.6008331083505911e-03  1.1802750147769464e-02  1.4736392835212374e-02  1.7408351319413169e-02  1.9822315147330880e-02  2.1983222088282531e-02  2.3906341856386706e-02  2.5592048973180962e-02  2.7054947945694088e-02  2.8325571228282328e-02  2.9392509155399114e-02  3.0286235354590064e-02  3.1020511461781253e-02  3.1603626197923257e-02  3.2057255514076739e-02  3.2386114806075318e-02  3.2621584595333021e-02  3.2754386161379490e-02  3.2805794498807224e-02  3.2780852553356922e-02  3.2687550211610614e-02  3.2535511359396349e-02  3.2334123765249335e-02  3.2087578089824750e-02  3.1796681694108819e-02  3.1468692662020153e-02  3.1104326026509570e-02  3.0706307117569512e-02  3.0275707825273442e-02  2.9812910682566199e-02  2.9318247958304466e-02  2.8791591779264977e-02  2.8231642593932647e-02  2.7638640240976082e-02  2.7010021560517437e-02  2.6344405376817696e-02  2.5642840951051307e-02  2.4900452645990511e-02  2.4115241911739169e-02  2.3291521806839559e-02  2.2419740437530776e-02  2.1506914745696472e-02  2.0542565476205921e-02  1.9535481901164248e-02  1.8477884580426165e-02  1.7365973633135703e-02  1.6210213975924589e-02  1.4996436071484175e-02  1.3735970660180216e-02  1.2422731008503107e-02  1.1055694075957181e-02  9.6348594559243633e-03  8.1623679649573642e-03  6.6413882432339449e-03  5.0624820047640287e-03  3.4433962456395196e-03  1.7678081309852962e-03  0.0000000000000000e+00  0.0000000000000000e+00  0.0000000000000000e+00  0.0000000000000000e+00  0.0000000000000000e+00  0.0000000000000000e+00  0.0000000000000000e+00  0.0000000000000000e+00  0.0000000000000000e+00  1.9215403324932484e-03  3.7145843782770685e-03  5.4798850548572597e-03  7.1918265248227028e-03  8.8541915996868861e-03  1.0465690195132328e-02  1.2025376572479044e-02  1.3531498882523266e-02  1.4981152584282998e-02  1.6372091335632406e-02  1.7700255656456762e-02  1.8963119294434783e-02  2.0155557688987941e-02  2.1274519961375107e-02  2.2315109336441416e-02  2.3270692995764675e-02  2.4140837118474874e-02  2.4914337522281713e-02  2.5586487300278512e-02  2.6151093626787494e-02  2.6601254046022829e-02  2.6930297949832916e-02  2.7132523057897106e-02  2.7197181959886536e-02  2.7122617450166895e-02  2.6897155113348635e-02  2.6518635396778994e-02  2.5975738382564825e-02  2.5263406177764017e-02  2.4379067454582275e-02  2.3312085205786932e-02  2.2057096300862999e-02  2.0629093023792400e-02  1.9013925922055256e-02  1.7185628603146298e-02  1.5184676489793060e-02  1.2987777612321404e-02  1.0595949707278170e-02  8.0107496870592734e-03  5.2398337252226755e-03  2.2744696721790727e-03  -8.7148686002522506e-04  -4.2064593930114386e-03  -7.7197378051239562e-03  -1.1422515087621198e-02  -1.5298866999686630e-02  -1.9349972182047970e-02  -2.3566601501786813e-02  -2.7951953359780644e-02  -3.2491821855324954e-02  -3.7183154611707826e-02  -4.2014169797518895e-02  -4.6970998812743817e-02  -5.2044599183504202e-02  -5.7218902700575308e-02  -6.2469528329107946e-02  -6.7735847347876063e-02  -7.3065251349934829e-02  -7.8370970825175246e-02  -8.3591746032194381e-02  -8.8731616166730198e-02  -9.3717696456246058e-02  -9.8529442842370266e-02  -1.0305971584919080e-01  -1.0730093469453482e-01  -1.1114198973447496e-01  -1.1457053280823325e-01  -1.1747421521865054e-01  -1.1985745018211383e-01  -1.2158740048854154e-01  -1.2268027837985383e-01  -1.2306653791935832e-01  -1.2262218312558594e-01  -1.2152146584316449e-01  -1.1963907160237126e-01  -1.1698919977451123e-01  -1.1369484600412251e-01  -1.0978558130169787e-01  -1.0538748518650483e-01  -1.0057066729345863e-01  -9.5337872096291743e-02  -8.9820400220617200e-02  -8.4056628211276199e-02  -7.8134520234210122e-02  -7.2058754919968243e-02  -6.5856020665736634e-02  -5.9575830788685703e-02  -5.3230621924314499e-02  -4.6830913706156524e-02  -4.0398970370343547e-02  -3.3939633746813858e-02  -2.7470160171456821e-02  -2.0993317153203798e-02  -1.4511541505758141e-02  -8.0355909438416060e-03  -1.5666341569111155e-03  4.8941827287261935e-03  1.1343593368212751e-02  1.7778690912612256e-02  2.4198386812009476e-02  3.0602197489794786e-02  3.6988687902741242e-02  4.3357684453155715e-02  4.9707680449629872e-02  5.6039012304510000e-02  6.2351003922008548e-02  6.8643405074702013e-02  7.4916130000069137e-02  8.1168893932988262e-02  8.7401654138463389e-02  9.3614382474747737e-02  9.9806992478291112e-02  1.0597946407099230e-01  1.1213180185918716e-01  1.1826402078063343e-01  1.2437610517286286e-01  1.3046812526723267e-01  1.3654010520263918e-01  1.4259207636941418e-01  1.4862409347666145e-01  1.5463619391485522e-01  1.6062840376421156e-01  1.6062812240794067e-01  1.6062743527160472e-01  1.6062635663491187e-01  1.6062504644471035e-01  1.6062373490260454e-01  1.6062265401159545e-01  1.6062196229667638e-01  1.6062168195118384e-01  -1.5457716859586221e-01  -1.8749093061990019e-01  -1.5404723276410401e-01  -1.4080417994641745e-01  -1.3060748061442071e-01  -1.2031380841961352e-01  -1.1000550618184901e-01  -9.9339766786667172e-02  -8.8204657439929279e-02  -7.9206800221390497e-02  -6.9265693388502594e-02  -5.9459530715742046e-02  -4.8987876103686490e-02  -3.7934321430890677e-02  -2.6260460922197824e-02  -1.4276581600621496e-01  -1.2636476800478233e-01  -1.0675692246896940e-01  -8.4398780444510921e-02  -6.1723712610793388e-02  -3.9158628990628976e-02  -1.6612675150049519e-01  -1.2156695250548717e-01  -1.8762673753758109e-02  -1.5244941584647948e-03  1.2854091309270923e-02  -1.6767336399354579e-01  2.2881699124828788e-02  -1.3938127747665967e-02  2.8470912382846134e-02  -6.1525600401115860e-04  3.1604621887512570e-02  -1.1229067318004529e-01  -9.5485027523035823e-02  3.2659939861299482e-02  -7.5277196900718560e-02  1.3190824092998144e-02  -4.9098892830448659e-02  3.2346634492040553e-02  2.8047988856558036e-02  -1.6012342523621742e-01  3.1215400227169371e-02  -2.5523616208709906e-02  -1.2160593083166957e-01  4.3448635695087869e-02  2.9515313165446647e-02  -2.4798971442327325e-03  6.0944932398713070e-02  6.4896710992757246e-03  2.7259964569959612e-02  1.4187619105487178e-02  7.8235185805147725e-02  -1.1505777701803847e-01  2.4521924269941642e-02  1.9810421436919086e-02  -1.0287583591864785e-01  2.3853164224504838e-02  2.1005385833103320e-02  -8.6936988629657833e-02  9.8434834009791514e-02  1.1245173655533014e-01  -1.3248566736676114e-02  1.7891635040182839e-02  1.4193294761718876e-02  2.6175765576171448e-02  -6.9166001000560140e-02  2.7060359930994475e-02  -1.4697360254967681e-01  -4.4058543716077959e-02  2.6276058833110211e-02  1.2990339117093100e-01  -2.4270526514147458e-02  1.0317054893892296e-02  2.3638129049363243e-02  -4.6805138449716507e-03  2.1155624308365872e-02  2.0646641457198259e-02  5.2873942481648055e-02  1.6977518156999050e-02  7.1836046269463563e-02  9.0614006424937901e-02  1.2734389261111019e-02  1.2221439613230990e-01  1.6090717081168884e-03  1.5504504962639759e-01  -1.6281341107219582e-01  8.1190006395551843e-03  5.7299624977847942e-03  1.4001708489816472e-01  -1.7426134184745609e-01  -1.6217156976945130e-01  -1.1806417989690930e-01  -5.6311396575969501e-02  7.6247849077402743e-03  3.3463145584861499e-02  1.4035759885815968e-01  -3.9712038322282282e-02  -6.4377776220386512e-02  -8.5528364475923782e-02  -1.0451670950882277e-01  8.8497377498250221e-02  2.6910091852228653e-02  6.9324827638998485e-02  1.0285577953222950e-01  2.5162796543115006e-02  2.2849138562254505e-02  5.1623978738143304e-02  2.5886426214877131e-02  2.8469249213260578e-02  3.6088135777396120e-02  3.0431926637950218e-02  3.1865440279212232e-02  3.2635194674744010e-02  3.2368241057236791e-02  -2.8831816081856813e-02  2.0501187734154262e-02  3.0350927715338084e-02  2.6016689498474469e-02  6.1201869399052028e-03  1.8489363739943882e-02  6.4846186841542967e-03  -9.2704371090683562e-03  1.3416159921335938e-03  -7.7940379295741895e-03  -1.9720184826852900e-02  1.5538502243239266e-01  -3.1865504920398802e-02  -4.3531679038864818e-02  -5.4285711860614545e-02  -6.4602201881860721e-02  -7.4317602329679086e-02  -8.3519205041528363e-02  -1.4913989714614234e-01  -9.4849882304892233e-02  -1.0565622537929596e-01  -1.1617022130305348e-01  -1.3512723776822708e-01  -1.2656548186744510e-01  -9.6077406003547472e-02  -1.1646419256150131e-01  -7.4043450540455358e-02  -5.0442286523485445e-02  -1.3677050124922582e-01  -1.5363602063983550e-01  1.6881308296488372e-03  1.5488810410924225e-01  4.5259055264113574e-03  -1.6259596383723929e-01  1.5563703362550502e-01  1.3675761364242965e-03  1.5153241141115123e-01  -1.6256602054335192e-01  -1.6222825066563218e-01  -1.6177160134218685e-01  -1.6226991551563225e-01  -1.6179552674708039e-01  -1.6262266829781391e-01  -1.6196734600032989e-01  -1.6307978363363457e-01  -1.6225379363465084e-01  -1.6340514356749555e-01  -1.6246040214901641e-01  -1.6333549992438287e-01  -1.6219604491407316e-01  -1.6270574613527636e-01  -1.6143010094824270e-01  -1.6161583679066624e-01  -1.6016670197613433e-01  -1.6011876760346186e-01  -1.5850147735855058e-01  -1.5802893323476405e-01  -1.5611960241445375e-01  -1.5968635119334285e-01  -1.5669196268940166e-01  -1.5392389884788293e-01  -1.5687580738900489e-01  -1.5878110482325758e-01  -1.5425907493147850e-01  -1.5135620137085679e-01  -1.5161324158089612e-01  -1.4834689515633928e-01  -1.4848696248339238e-01  -1.4489893168739487e-01  -1.4495973206292831e-01  -1.4130352606292887e-01  -1.4102924539331391e-01  -1.3663747139410651e-01  -1.3647597470319850e-01  -1.3226791496739890e-01  -1.3168035520369517e-01  -1.2731074705662093e-01  -1.2648595046458219e-01  -1.2202585817130306e-01  -1.2097775195411979e-01  -1.1647474842705298e-01  -1.1516345182574911e-01  -1.1068732860826118e-01  -1.0907667738119065e-01  -1.0467675547550259e-01  -1.0278105515823636e-01  -9.8524258553589816e-02  -9.6287529220401000e-02  -9.2266320582356301e-02  -8.9579229789762668e-02  -1.5484585664135561e-01  -1.5651319831359198e-01  -8.5916769328993697e-02  -8.2804224246269501e-02  -7.9565700983281487e-02  -7.6456565539630150e-02  -7.3297586405687606e-02  -6.9840289891548696e-02  -6.7125513763125921e-02  -6.3341979497492304e-02  -1.5017251108667232e-01  -6.1163417561787503e-02  -5.6954405800050255e-02  -5.5100082408742840e-02  -5.0693171278669805e-02  -4.9466750227898988e-02  -4.4712765416776518e-02  -1.5176785358892628e-01  -1.5349644448048144e-01  -1.6383464591113309e-01  -4.3963071770534594e-02  -3.8924707305000091e-02  -3.8735719016762565e-02  -3.3417537355482349e-02  -3.3764668644084284e-02  -2.8224505814152954e-02  -1.5994466893316267e-01  -2.9069436210969218e-02  -2.3313273988538635e-02  -1.4051849630352461e-01  -2.4635921157778490e-02  -1.8732365382684291e-02  -2.0496913437871220e-02  -1.4474821555305930e-02  -1.6570658331325712e-02  -1.0531404839543134e-02  -1.6079793769219344e-01  -1.2713711181381496e-01  -1.2980355720294845e-02  -6.9040631953911488e-03  -1.4769260929911174e-01  -1.4865409614385355e-01  -1.4630709834837233e-01  -1.1129950923091141e-01  -9.5837476543886232e-03  -3.4311841563079526e-03  -6.5328515106547799e-03  -3.1510567580249441e-04  -3.6356611289756272e-03  2.3816035511625491e-03  -3.9781491118166999e-02  -6.4688615905680858e-04  -2.2722042018415739e-02  -5.9237719303265303e-02  -9.5314788666590899e-04  4.8520693595877100e-03  8.1801213235737340e-03  1.0497792470283145e-02  7.1618914850511278e-03  1.2587136097045823e-02  9.3391416722834412e-03  1.4536123219580825e-02  1.1303355918989391e-02  1.6231993193761212e-02  1.3101508955811695e-02  1.7793819936231067e-02  1.4793536674386269e-02  1.9165472583824873e-02  1.6259699106818522e-02  2.0418026701502480e-02  1.7725751367922527e-02  2.1663796450478445e-02  1.9034656337986771e-02  2.2685469129398634e-02  2.0268301513533048e-02  2.3573458436436892e-02  2.1254718405035167e-02  2.4381994703785922e-02  -7.9392840941051868e-02  -9.4258111067247297e-02  2.2265057093976560e-02  2.5064863659956749e-02  2.3224169083699023e-02  2.5714989937876395e-02  -1.4775890304313249e-01  -1.1303753122457100e-01  2.4079145246413091e-02  2.6252647672086422e-02  -1.3016023308920582e-01  -7.6873950788615003e-02  -1.4270475352401646e-01  -1.4319868544579997e-01  -1.4984444630586735e-01  -1.4325163248620290e-01  -1.4868088182599165e-01  -1.4254000554499902e-01  -1.4812285593839322e-01  -1.4125319298212827e-01  -1.4500450565048553e-01  -1.3899297040548186e-01  -1.4279124919174013e-01  -1.3639125667919763e-01  -1.3866058843327889e-01  -1.3320979942231223e-01  -1.3482180952114475e-01  -1.2990784013240092e-01  -1.3094321789147653e-01  -1.2639786900281250e-01  -1.2705964821612320e-01  -1.2284696903719447e-01  -1.2317463307706275e-01  -1.1922648261197344e-01  -1.1932491423866033e-01  -1.1559694323210321e-01  -1.1549763381184601e-01  -1.1200144905523057e-01  -1.1137388121540631e-01  -1.0813963981297875e-01  -1.0842277433117575e-01  -1.0480764400833581e-01  -1.0446276444391810e-01  -1.0119762740548782e-01  -1.0087455291425913e-01  -9.7633151874252547e-02  -9.7066706257882454e-02  -9.4013104822467483e-02  -1.2812118598257080e-01  -1.0464071115055332e-01  -1.1846636940510080e-01  -9.3390839037745074e-02  -9.0315525781105840e-02  -9.0711261206310956e-02  -8.7176934566889602e-02  -8.6577853747147590e-02  -8.3560895829768736e-02  -8.2796220305288520e-02  -7.9893215566091552e-02  -7.9030564897274377e-02  -7.6172031907871460e-02  -8.3426979195709267e-02  -1.5363245331903858e-01  -1.4388761964731148e-01  -7.5326046663330551e-02  -7.2393009382065193e-02  -7.3202336986055008e-02  -6.9424534000043323e-02  -6.8589990843137244e-02  -6.5664483653032388e-02  -6.4731237278136747e-02  -6.1881206916208346e-02  -1.3541657720729255e-01  -6.6238433027810156e-02  -6.0896053305030465e-02  -5.8112343711390485e-02  -1.2702753622113505e-01  -5.7174905541520375e-02  -5.4289211383065042e-02  -5.5502482169489761e-02  -5.1355565415314164e-02  -5.0356884513041086e-02  -4.7308070780397268e-02  -4.8268409616456745e-02  -4.4219543087781268e-02  -4.3278752368572496e-02  -4.0180452150895295e-02  -3.9234620180509133e-02  -3.6048985254844602e-02  -3.7021354070759335e-02  -3.2890902021705019e-02  -3.1892309924155947e-02  -2.8757163071583769e-02  -2.7800432925745317e-02  -2.4642344868777966e-02  -1.3759802991713718e-01  -1.0406325490076473e-01  -1.1886704534734094e-01  -2.3781965936871718e-02  -2.0560363687568264e-02  -2.1433850595991948e-02  -1.7197115251097787e-02  -1.6331064331619356e-02  -1.2966976513479713e-02  -1.8069612362887507e-02  2.4758841960588671e-02  2.6701639092553471e-02  2.5379372377777622e-02  2.7083103692854282e-02  2.5934675872589606e-02  2.7392505418991634e-02  -8.5848585511974010e-02  -4.8944860502242372e-02  -1.6364638384501196e-01  -1.2071007362090888e-02  -8.7730215498498729e-03  -9.6338224916422063e-02  2.2240283732895810e-02  2.6488668735658690e-02  1.3288449779228525e-02  2.6398499817348906e-02  2.7620794201289010e-02  2.8703094336258242e-02  2.8708423021038543e-02  2.7774212474040973e-02  2.8661306619206451e-02  2.7860342577064840e-02  2.8555136056372436e-02  2.7863594990602883e-02  2.8381500168283880e-02  2.7794415541134179e-02  2.8149819131965358e-02  2.7641033339995586e-02  2.7846279083505298e-02  2.7411054345705978e-02  2.7483185308185849e-02  2.7108180793921893e-02  2.7058441240208952e-02  2.6735639064262212e-02  2.6574498680804307e-02  2.6282973019626454e-02  2.6015946161919344e-02  2.5748151979318887e-02  2.5405932524976835e-02  2.5135875777941716e-02  2.4708695876310426e-02  2.4463334376933401e-02  2.3971195490361953e-02  2.3696399277385788e-02  2.3147740867738239e-02  2.2873273225788165e-02  2.2276538820222683e-02  2.8319266845685212e-02  -3.3930619297197338e-02  -6.7693221182685184e-02  -7.7562804701608494e-03  -4.4702094924204813e-03  -5.4783224129735580e-03  -1.0233242582224121e-03  -2.0759518181301165e-03  2.4831813293570352e-03  3.4145173820183477e-03  6.9412990230399135e-03  7.9914345260444115e-03  1.1491206189217663e-02  1.0538521265113851e-02  1.5076940565401469e-02  1.5886757558058764e-02  1.9579758487422341e-02  2.0374864947885832e