<?xml version="1.0"?>
<VTKFile type="UnstructuredGrid"  version="0.1"  >
<UnstructuredGrid>
<Piece  NumberOfPoints="2886" NumberOfCells="5412">
<Points>
<DataArray  type="Float64"  NumberOfComponents="3"  format="ascii">0 0.1 0  0.98 0.1 0  1 0.1 0  1 0 0  1.5 0 0  3 0 0  3 0.3 0  0 0.3 0  0.01975375321854102 0.1 0  0.03918897458218897 0.1 0  0.05831079002627837 0.1 0  0.07712425666319796 0.1 0  0.0956343475259058 0.1 0  0.1138459546796227 0.1 0  0.1317638870668193 0.1 0  0.1493928840275937 0.1 0  0.1667376092280033 0.1 0  0.1838026357802664 0.1 0  0.2005924801287244 0.1 0  0.2171115811543574 0.1 0  0.2333643037107681 0.1 0  0.2493549444060462 0.1 0  0.2650877293306821 0.1 0  0.2805668058011438 0.1 0  0.2957962848620976 0.1 0  0.3107801766802674 0.1 0  0.3255224447361181 0.1 0  0.3400269848175519 0.1 0  0.3542976327080778 0.1 0  0.3683381609158136 0.1 0  0.3821522744564845 0.1 0  0.3957436316838916 0.1 0  0.4091158196437086 0.1 0  0.4222723742184605 0.1 0  0.4352167733293057 0.1 0  0.4479524348643424 0.1 0  0.4604827295467524 0.1 0  0.4728109659990664 0.1 0  0.4849404035409129 0.1 0  0.4968742471455402 0.1 0  0.508615651843175 0.1 0  0.520167721130924 0.1 0  0.5315335063628542 0.1 0  0.5427160117228604 0.1 0  0.5537181940261912 0.1 0  0.564542961924507 0.1 0  0.575193173270606 0.1 0  0.5856716438765114 0.1 0  0.5959811458006617 0.1 0  0.6061243988680743 0.1 0  0.6161040893285659 0.1 0  0.6259228503970299 0.1 0  0.6355832809287655 0.1 0  0.6450879281079505 0.1 0  0.6544393102991295 0.1 0  0.663639896558931 0.1 0  0.6726921201956305 0.1 0  0.6815983691630338 0.1 0  0.6903610031396646 0.1 0  0.6989823343332418 0.1 0  0.7074646404270378 0.1 0  0.7158101645005117 0.1 0  0.7240211149852543 0.1 0  0.7320996585612525 0.1 0  0.7400479319727645 0.1 0  0.7478680336617921 0.1 0  0.755562036504958 0.1 0  0.7631319665092091 0.1 0  0.7705798279317605 0.1 0  0.777907588066146 0.1 0  0.7851171851013118 0.1 0  0.7922105226004981 0.1 0  0.7991894774550319 0.1 0  0.8060558928136696 0.1 0  0.812811583201334 0.1 0  0.8194583352091183 0.1 0  0.8259979035038147 0.1 0  0.8324320194413813 0.1 0  0.8387623808293405 0.1 0  0.8449906627004957 0.1 0  0.8511185094880469 0.1 0  0.8571475426008311 0.1 0  0.8630793533568246 0.1 0  0.8689155114558531 0.1 0  0.8746575581239063 0.1 0  0.8803070109173519 0.1 0  0.885865363938836 0.1 0  0.8913340851680313 0.1 0  0.8967146206523592 0.1 0  0.9020083930695622 0.1 0  0.9072167995950768 0.1 0  0.9123412183131177 0.1 0  0.9173830029719022 0.1 0  0.9223434865647732 0.1 0  0.9272239785872722 0.1 0  0.9320257720706087 0.1 0  0.9367501330378739 0.1 0  0.9413983102716995 0.1 0  0.9459715351562933 0.1 0  0.9504710127113115 0.1 0  0.9548979346500661 0.1 0  0.9592534708344373 0.1 0  0.9635387708980176 0.1 0  0.9677549682252325 0.1 0  0.971903177251235 0.1 0  0.9759844952956497 0.1 0  0.9840000000000086 0.1 0  0.987999999999974 0.1 0  0.9919999999999393 0.1 0  0.9959999999999913 0.1 0  1 0.09591793123533533 0  1 0.09133596463859224 0  1 0.08619288104391448 0  1 0.08041996484521211 0  1 0.07394008421771697 0  1 0.06666666567302955 0  1 0.05850252932209174 0  1 0.04933859630113544 0  1 0.03905242821848202 0  1 0.02750659386753798 0  1 0.01454683679239736 0  1.015625 0 0  1.03125 0 0  1.046875 0 0  1.0625 0 0  1.078125 0 0  1.09375 0 0  1.109375 0 0  1.125 0 0  1.140625 0 0  1.15625 0 0  1.171875 0 0  1.1875 0 0  1.203125 0 0  1.21875 0 0  1.234375 0 0  1.25 0 0  1.265625 0 0  1.28125 0 0  1.296875 0 0  1.3125 0 0  1.328125 0 0  1.34375 0 0  1.359375 0 0  1.375 0 0  1.390625 0 0  1.40625 0 0  1.421875 0 0  1.4375 0 0  1.453125 0 0  1.46875 0 0  1.484375 0 0  1.515920751924515 0 0  1.531989369316721 0 0  1.54820720925872 0 0  1.564575665560501 0 0  1.581096138674279 0 0  1.597770029901263 0 0  1.614598783332311 0 0  1.631583831055205 0 0  1.64872661129721 0 0  1.666028606716533 0 0  1.683491276608443 0 0  1.701116134125304 0 0  1.718904673324128 0 0  1.736858414799339 0 0  1.754978895814663 0 0  1.773267661782904 0 0  1.791726281103402 0 0  1.810356325314689 0 0  1.8291593848892 0 0  1.848137076690385 0 0  1.867291007717254 0 0  1.886622833871288 0 0  1.90613418642363 0 0  1.925826753299799 0 0  1.945702199101513 0 0  1.96576223584749 0 0  1.986008569283268 0 0  2.006442931928877 0 0  2.02706707547783 0 0  2.047882750887917 0 0  2.06889175187935 0 0  2.090095860038271 0 0  2.111496891648636 0 0  2.133096679109554 0 0  2.154897066851056 0 0  2.176899916687499 0 0  2.199107102752146 0 0  2.22152053937028 0 0  2.244142122958061 0 0  2.266973806444078 0 0  2.290017523268154 0 0  2.313275249499252 0 0  2.336748971745516 0 0  2.360440702338606 0 0  2.384352453384031 0 0  2.408486280477412 0 0  2.432844240041185 0 0  2.457428414757088 0 0  2.482240901796653 0 0  2.507283830121838 0 0  2.532559332080812 0 0  2.558069568787417 0 0  2.583816724966441 0 0  2.60980299606584 0 0  2.636030600971886 0 0  2.662501790984011 0 0  2.689218818279327 0 0  2.716183964547616 0 0  2.743399548861297 0 0  2.77086788244719 0 0  2.798591312896326 0 0  2.826572223178268 0 0  2.854812990138617 0 0  2.883316031690714 0 0  2.912083780657189 0 0  2.941118704633482 0 0  2.970423276998917 0 0  3 0.02999999999994495 0  3 0.05999999999987042 0  3 0.089999999999783 0  3 0.119999999999701 0  3 0.149999999999619 0  3 0.179999999999692 0  3 0.2099999999997737 0  3 0.2399999999998511 0  3 0.2699999999999185 0  2.970138294777171 0.3 0  2.940375666438236 0.3 0  2.910711782853056 0.3 0  2.881146331305122 0.3 0  2.851678975030285 0.3 0  2.822309388626621 0.3 0  2.793037250095074 0.3 0  2.76386223529133 0.3 0  2.734784017903872 0.3 0  2.705802289276642 0.3 0  2.676916713794697 0.3 0  2.648126987654635 0.3 0  2.619432780406184 0.3 0  2.590833779385199 0.3 0  2.562329669847737 0.3 0  2.533920134950189 0.3 0  2.505604855727852 0.3 0  2.477383539822502 0.3 0  2.449255847639465 0.3 0  2.421221492569094 0.3 0  2.393280152486815 0.3 0  2.36543151914496 0.3 0  2.337675285481809 0.3 0  2.310011142385583 0.3 0  2.282438797441587 0.3 0  2.254957931061538 0.3 0  2.227568248063605 0.3 0  2.200269436651085 0.3 0  2.173061204949961 0.3 0  2.145943251515011 0.3 0  2.118915272469994 0.3 0  2.091976978084957 0.3 0  2.065128060700849 0.3 0  2.038368218849433 0.3 0  2.01169717777258 0.3 0  1.985114624111908 0.3 0  1.958620267850966 0.3 0  1.93221382054972 0.3 0  1.905894991850698 0.3 0  1.879663489459713 0.3 0  1.853519019126419 0.3 0  1.827461291053897 0.3 0  1.801490031354372 0.3 0  1.775604937580312 0.3 0  1.74980572560258 0.3 0  1.724092118631866 0.3 0  1.698463829173586 0.3 0  1.672920575782554 0.3 0  1.647462076974085 0.3 0  1.622088043536933 0.3 0  1.5967981978949 0.3 0  1.571592267767068 0.3 0  1.546469970305736 0.3 0  1.521431023814044 0.3 0  1.496475156230927 0.3 0  1.471602093687753 0.3 0  1.446811560490646 0.3 0  1.422103279101731 0.3 0  1.397476971708191 0.3 0  1.37293238939876 0.3 0  1.348469231419202 0.3 0  1.324087248732772 0.3 0  1.299786165921677 0.3 0  1.275565710847046 0.3 0  1.251425617644257 0.3 0  1.227365618676339 0.3 0  1.203385446174014 0.3 0  1.179484853067473 0.3 0  1.155663548773374 0.3 0  1.131921292279077 0.3 0  1.108257802159295 0.3 0  1.084672829009693 0.3 0  1.061166115303374 0.3 0  1.037737392995421 0.3 0  1.01438640299116 0.3 0  0.991112899770314 0.3 0  0.9679166155523955 0.3 0  0.944797284182564 0.3 0  0.921754678526042 0.3 0  0.8987885143602501 0.3 0  0.8758985548820624 0.3 0  0.8530845484099929 0.3 0  0.8303462351786988 0.3 0  0.8076833651172373 0.3 0  0.7850956864865304 0.3 0  0.7625829601354557 0.3 0  0.7401449314598274 0.3 0  0.717781337993959 0.3 0  0.6954919649675473 0.3 0  0.6732765357561226 0.3 0  0.6511348120768439 0.3 0  0.6290665642016573 0.3 0  0.6070715355430467 0.3 0  0.5851494825775325 0.3 0  0.5633001690203812 0.3 0  0.5415233562273221 0.3 0  0.5198187909431873 0.3 0  0.4981862401387795 0.3 0  0.4766254686134248 0.3 0  0.4551362360485234 0.3 0  0.4337182975262159 0.3 0  0.4123714223228037 0.3 0  0.3910953802377493 0.3 0  0.3698899313205595 0.3 0  0.3487548463710963 0.3 0  0.3276898864081783 0.3 0  0.3066948129116018 0.3 0  0.2857694003037476 0.3 0  0.2649134227095047 0.3 0  0.2441266417321288 0.3 0  0.2234088223399122 0.3 0  0.2027597568977288 0.3 0  0.1821792020676698 0.3 0  0.1616669305402443 0.3 0  0.1412227158799362 0.3 0  0.12084633013886 0.3 0  0.1005375673448281 0.3 0  0.08029618164595353 0.3 0  0.06012194778526769 0.3 0  0.04001466495039718 0.3 0  0.01997408913631205 0.3 0  0 0.2800000000000553 0  0 0.2600000000001105 0  0 0.2400000000001658 0  0 0.2200000000002211 0  0 0.2000000000002764 0  0 0.1800000000002244 0  0 0.1600000000001691 0  0 0.140000000000115 0  0 0.1200000000000564 0  1.13346801534201 0.01255848438672509 0  1.003577645172735 0.09351054173913405 0  0.9777559943702486 0.1034978156913738 0  0.9524533750752109 0.1040889939962738 0  0.9296242411226409 0.1041520033606139 0  0.9046110503652111 0.104409422380137 0  0.8777709649694228 0.1053360318797398 0  0.8483859145648608 0.1061007868330701 0  0.8162363822948977 0.1052777104363292 0  0.7893110024210437 0.1060761643971561 0  0.7587949382612539 0.1067265405088633 0  0.7280603867732535 0.1069398153264939 0  0.6947001989413015 0.1075609887579097 0  0.6590363283767549 0.1076715322596598 0  0.6210028614493155 0.1072970410408442 0  1.1953125 0.01353164693413185 0  1.258193991486058 0.01269648635163345 0  1.3201967268638 0.01407907077719561 0  1.383538555392096 0.01434101079053473 0  1.445312500000001 0.01303671693628424 0  1.508925448095738 0.01398525724792267 0  0.9939176689634008 0.1034638089837981 0  1.120967497222226 0.2796788492172345 0  1.572835902117391 0.01424132418857359 0  1.637573277451887 0.01212536916586023 0  1.709730776795181 0.01466855431023635 0  1.005631976950563 0.07074019818158772 0  1.784944696816299 0.01454708406461822 0  0.5805605730631225 0.1101465090472147 0  1.855621181165637 0.01550931272897607 0  0.5366111276616774 0.1096761308243709 0  1.935200147913231 0.01760344159641829 0  1.214922267975168 0.2799787705802257 0  1.31178773425331 0.2792
[...]
<PointData  Scalars="pressure"> 
<DataArray  type="Float64"  Name="pressure"  format="ascii">1.6030357072368651e-01  -1.6496088426807873e-01  -2.1767004406783738e-01  -1.6220565986538760e-01  -4.1571053606780102e-02  0.0000000000000000e+00  0.0000000000000000e+00  1.6031041650845582e-01  1.5437744834315517e-01  1.4854681869613168e-01  1.4281011646850283e-01  1.3716581735505540e-01  1.3161240899939264e-01  1.2614841285122322e-01  1.2077239384531496e-01  1.1548288409719705e-01  1.1027848786608040e-01  1.0515781753048689e-01  1.0011947080937143e-01  9.5162099134171854e-02  9.0284388393636950e-02  8.5484980002066474e-02  8.0762577776229583e-02  7.6115965278148082e-02  7.1543756185688326e-02  6.7044757109152878e-02  6.2617729297216429e-02  5.8261380470468638e-02  5.3974547660045710e-02  4.9756100809596061e-02  4.5604704735150860e-02  4.1519278076596590e-02  3.7498546110573419e-02  3.3541413657613671e-02  2.9646835607794589e-02  2.5813557673822728e-02  2.2040410256569967e-02  1.8326349310967240e-02  1.4670253707257606e-02  1.1070944488132329e-02  7.5274323631444370e-03  4.0385008585290929e-03  6.0313478538834178e-04  -2.7798253590520022e-03  -6.1114412164307678e-03  -9.3924087486892509e-03  -1.2624489016579268e-02  -1.5808312115662259e-02  -1.8944979921432931e-02  -2.2035744225864448e-02  -2.5081614104754377e-02  -2.8083059770079417e-02  -3.1042062000657789e-02  -3.3959125704479440e-02  -3.6835356742341896e-02  -3.9671872512196768e-02  -4.2469652104148700e-02  -4.5229730917763528e-02  -4.7953271211669701e-02  -5.0641196962921735e-02  -5.3294465053596848e-02  -5.5914019235879894e-02  -5.8501393916810078e-02  -6.1056990846213473e-02  -6.3582053150615186e-02  -6.6077238501732319e-02  -6.8544511140206155e-02  -7.0984300226942521e-02  -7.3396878539492671e-02  -7.5783933711800436e-02  -7.8146994754114810e-02  -8.0485806987151506e-02  -8.2802371548425263e-02  -8.5097399153259132e-02  -8.7371197546532567e-02  -8.9625301981115915e-02  -9.1860594090917194e-02  -9.4077980899829425e-02  -9.6279137674273346e-02  -9.8464186099629716e-02  -1.0063358400892800e-01  -1.0278799863932883e-01  -1.0493069718631574e-01  -1.0706084965324193e-01  -1.0917911868893235e-01  -1.1128729095461493e-01  -1.1338574950755027e-01  -1.1547539888186048e-01  -1.1755728379632471e-01  -1.1963315880125143e-01  -1.2170345481880002e-01  -1.2376835767477926e-01  -1.2583004287468921e-01  -1.2788929286222250e-01  -1.2994708932609059e-01  -1.3200460725417501e-01  -1.3406285791835132e-01  -1.3612320114245130e-01  -1.3818699558186556e-01  -1.4025571154430461e-01  -1.4233068863682524e-01  -1.4441317008261209e-01  -1.4650211282268966e-01  -1.4858066858686353e-01  -1.5094257202585837e-01  -1.5174320187224904e-01  -1.5485611031454138e-01  -1.5045471430361296e-01  -1.5572905123805694e-01  -1.5399565785586999e-01  -2.0439258984860040e-01  -1.8267971431200666e-01  -1.7605882523850172e-01  -1.7125214474930250e-01  -1.6801223054443132e-01  -1.6558283120082090e-01  -1.6376473608969708e-01  -1.6243454196932444e-01  -1.6163757725204778e-01  -1.6144498460416468e-01  -1.6185344810807109e-01  -1.6264660503310241e-01  -1.6302343371235573e-01  -1.6282054724253234e-01  -1.6215330068575032e-01  -1.6111249651317830e-01  -1.5974195995164275e-01  -1.5802677396653420e-01  -1.5595418098088848e-01  -1.5355309604525175e-01  -1.5084069204906936e-01  -1.4782077263293070e-01  -1.4450681287309397e-01  -1.4090960292871499e-01  -1.3704090799085902e-01  -1.3292077751431255e-01  -1.2856177808478425e-01  -1.2397596834822099e-01  -1.1918133573218637e-01  -1.1419641949372250e-01  -1.0903135915228218e-01  -1.0371603504821923e-01  -9.8268228595315199e-02  -9.2703608479291252e-02  -8.7052794331567596e-02  -8.1334057830176998e-02  -7.5576673443141160e-02  -6.9802932890387151e-02  -6.4035493858904974e-02  -5.8306100525302711e-02  -5.2635687551637590e-02  -4.7050417362240575e-02  -3.6121623307590819e-02  -3.0787875475811952e-02  -2.5579372695409153e-02  -2.0530827686588256e-02  -1.5669715444375416e-02  -1.0998026896513212e-02  -6.5437432502531631e-03  -2.3123575694603735e-03  1.6469753302998623e-03  5.3581300314042256e-03  8.8200414078271287e-03  1.2011289647339097e-02  1.4933959267307244e-02  1.7594787002770441e-02  1.9997583435732946e-02  2.2147388267459437e-02  2.4059590172903444e-02  2.5734670080496923e-02  2.7187277219080177e-02  2.8448046471338608e-02  2.9505623967631393e-02  3.0390521158624929e-02  3.1116533529553979e-02  3.1691958274899713e-02  3.2138491405940002e-02  3.2460843181492505e-02  3.2690339261069581e-02  3.2817738694399974e-02  3.2864259263912295e-02  3.2834927611275877e-02  3.2737703767248778e-02  3.2582165890612767e-02  3.2377653076424436e-02  3.2128319962915833e-02  3.1834956455269778e-02  3.1504766015222820e-02  3.1138440076894806e-02  3.0738666092511070e-02  3.0306488240602423e-02  2.9842262863237528e-02  2.9346296084033743e-02  2.8818435682118289e-02  2.8257365137999601e-02  2.7663297814328532e-02  2.7033659915416057e-02  2.6367056089831982e-02  2.5664510131770825e-02  2.4921146997560688e-02  2.4134960649186927e-02  2.3310245643947486e-02  2.2437455591726562e-02  2.1523595167541740e-02  2.0558192925896980e-02  1.9550029278484576e-02  1.8491335265319975e-02  1.7378309063243239e-02  1.6221425598969719e-02  1.5006520713504765e-02  1.3744927850559660e-02  1.2430569689950689e-02  1.1062430538328095e-02  9.6405137997950842e-03  8.1669723318788107e-03  6.6449672714998633e-03  5.0650734281690729e-03  3.4450429211596487e-03  1.7685467590458728e-03  0.0000000000000000e+00  0.0000000000000000e+00  0.0000000000000000e+00  0.0000000000000000e+00  0.0000000000000000e+00  0.0000000000000000e+00  0.0000000000000000e+00  0.0000000000000000e+00  0.0000000000000000e+00  1.9228482468551578e-03  3.7171992132015589e-03  5.4838281553286896e-03  7.1971312706994800e-03  8.8608902073614732e-03  1.0473824603884465e-02  1.2034997308106726e-02  1.3542664485554740e-02  1.4993932517635242e-02  1.6386567656007388e-02  1.7716522743297596e-02  1.8981284991429509e-02  2.0175742183803740e-02  2.1296855324515283e-02  2.2339735217040312e-02  2.3297764355947714e-02  2.4170506405491735e-02  2.4946768302926824e-02  2.5621842879103778e-02  2.6189535172692749e-02  2.6642942818571314e-02  2.6975382587270245e-02  2.7181153330520048e-02  2.7249511273727635e-02  2.7178746377184235e-02  2.6957225939312747e-02  2.6582753081264669e-02  2.6044005254891211e-02  2.5335918852893134e-02  2.4455909523004107e-02  2.3393345925365443e-02  2.2142854599152283e-02  2.0719402183957847e-02  1.9108827860988175e-02  1.7285192166442066e-02  1.5288976335105649e-02  1.3096800978975850e-02  1.0709771207267375e-02  8.1293929662541002e-03  5.3633458956162030e-03  2.4028864473128139e-03  -7.3815649938826881e-04  -4.0681587883927154e-03  -7.5764340360722241e-03  -1.1274139590590362e-02  -1.5145471474929869e-02  -1.9191537646068967e-02  -2.3403244857629651e-02  -2.7783712935842551e-02  -3.2318846532622264e-02  -3.7005661850987075e-02  -4.1832433522025751e-02  -4.6785431062108043e-02  -5.1855662365680046e-02  -5.7027115978199414e-02  -6.2275611434017032e-02  -6.7540973226026604e-02  -7.2869984371400923e-02  -7.8176538591735165e-02  -8.3399711354951625e-02  -8.8543359361177701e-02  -9.3534937851633387e-02  -9.8354005006824188e-02  -1.0289369652426442e-01  -1.0714659360392335e-01  -1.1100183330550907e-01  -1.1444711457064261e-01  -1.1737039877665671e-01  -1.1977601876139497e-01  -1.2153125504924932e-01  -1.2265211392254644e-01  -1.2306872890653739e-01  -1.2265641637499419e-01  -1.2158884135891017e-01  -1.1973928131951331e-01  -1.1712091522593948e-01  -1.1385585789185806e-01  -1.0997277427255357e-01  -1.0559772057407342e-01  -1.0080075109237417e-01  -9.5584211465205765e-02  -9.0080241448320594e-02  -8.4327411901567478e-02  -7.8414479355579408e-02  -7.2346114607905271e-02  -6.6149249266051494e-02  -5.9873886271726996e-02  -5.3532588299704212e-02  -4.7135977262271422e-02  -4.0706550770598197e-02  -3.4249201254092490e-02  -2.7781368198757660e-02  -2.1305849792093830e-02  -1.4825108871846791e-02  -8.3500193586272444e-03  -1.8817636606778029e-03  4.5784993342124301e-03  1.1027467118893229e-02  1.7462200803611459e-02  2.3881598929723503e-02  3.0285172073820751e-02  3.6671468748641939e-02  4.3040312815398593e-02  4.9390180209228897e-02  5.5721410379505440e-02  6.2033318972899723e-02  6.8325652286823552e-02  7.4598322846135642e-02  8.0851042034413012e-02  8.7083765836901805e-02  9.3296465043097479e-02  9.9489051548724575e-02  1.0566150424491572e-01  1.1181382704064849e-01  1.1794603428652803e-01  1.2405810938873729e-01  1.3015012267223625e-01  1.3622209772982674e-01  1.4227406554731686e-01  1.4830608077466320e-01  1.5431818040249720e-01  1.6031039006264045e-01  1.6031010552955907e-01  1.6030941062805806e-01  1.6030831979720681e-01  1.6030699479257010e-01  1.6030566842074634e-01  1.6030457531004930e-01  1.6030387577824493e-01  1.6030359226742449e-01  -1.5439030077474097e-01  -1.8728205993595082e-01  -1.5461364909582259e-01  -1.4131429677810081e-01  -1.3106968923200010e-01  -1.2074045735103420e-01  -1.1040520692854255e-01  -9.9718182868385352e-02  -8.8566314541477315e-02  -7.9558238433744308e-02  -6.9608458702220224e-02  -5.9795861207842055e-02  -4.9319125330323399e-02  -3.8261689785151931e-02  -2.6584940143806659e-02  -1.4256458252939236e-01  -1.2614232484806792e-01  -1.0651023312282434e-01  -8.4129055218009327e-02  -6.1439113422850800e-02  -3.8872081307187972e-02  -1.6677663726411235e-01  -1.2152205409912149e-01  -1.8489856086258406e-02  -1.2796950901878480e-03  1.3057307996790238e-02  -1.6749651015627659e-01  2.3039261972990551e-02  -1.4260528948581217e-02  2.8590241211270732e-02  -9.3614244261325881e-04  3.1690248693499609e-02  -1.1215880679675609e-01  -9.5306390879175598e-02  3.2720557969316125e-02  -7.5083151065923309e-02  1.2870955589516840e-02  -4.8912702093330152e-02  3.2392415807828139e-02  2.7728810582341185e-02  -1.5994265474510616e-01  3.1250945921905998e-02  -2.5358853758290313e-02  -1.2165700797280114e-01  4.3129899789686225e-02  2.9544361776696979e-02  -2.3448975747488751e-03  6.0626492207374663e-02  6.6103120283698457e-03  2.7284287715937564e-02  1.4293389250752171e-02  7.7916911553196189e-02  -1.1520217232781081e-01  2.4542381023501210e-02  1.9902473444205013e-02  -1.0309470282393783e-01  2.3931537774189555e-02  2.1021697115500750e-02  -8.7201644725753341e-02  9.8116664763533062e-02  1.1213360737573336e-01  -1.3098534582205080e-02  1.7904648180582315e-02  1.4202780549341928e-02  2.6241580018023066e-02  -6.9455773097362297e-02  2.7110435674604066e-02  -1.4752085422313366e-01  -4.4364527519472841e-02  2.6316013083096682e-02  1.2958528908910727e-01  -2.4582310258415591e-02  1.0323339363798185e-02  2.3666501449752537e-02  -4.9952666554411492e-03  2.0838993467626750e-02  2.0667880102528881e-02  5.2556398233505872e-02  1.6992875551506217e-02  7.1518268661782153e-02  9.0296105076241362e-02  1.2744780602272925e-02  1.2189640435214921e-01  1.6101553731265271e-03  1.5472700482964447e-01  -1.6263676170065022e-01  8.1251155109235713e-03  5.7330686240544245e-03  1.3969907582263483e-01  -1.7407961298783237e-01  -1.6199304026359795e-01  -1.1797048614883164e-01  -5.6611253524911385e-02  7.3089377018446550e-03  3.3146048278516457e-02  1.4003950475886773e-01  -3.9533080850167608e-02  -6.4184307495282644e-02  -8.5338726596914882e-02  -1.0435653494617855e-01  8.8179165565010625e-02  2.6968000245904684e-02  6.9006479413446301e-02  1.0253783062846093e-01  2.5196641372770671e-02  2.2867553831320244e-02  5.1305401687166886e-02  2.5908669962011726e-02  2.8495822851076227e-02  3.5769214738295980e-02  3.0463894243219387e-02  3.1905498556228234e-02  3.2688373354288418e-02  3.2439830779704006e-02  -2.8549992748001039e-02  2.0181699496670511e-02  3.0452372479383379e-02  2.6154548914371561e-02  5.7998502262287480e-03  1.8669388383480548e-02  6.7087950687518853e-03  -9.0108868760202642e-03  1.3423578044347564e-03  -8.1156584709863398e-03  -2.0043459702018245e-02  1.5506694905948729e-01  -3.2191255182979141e-02  -4.3860850614011113e-02  -5.4619335005417789e-02  -6.4941694919971316e-02  -7.4664477324223030e-02  -8.3875242353198043e-02  -1.4894660210703697e-01  -9.5220915344071774e-02  -1.0604645233070593e-01  -1.1658515761603729e-01  -1.3491616552002159e-01  -1.2701245840983447e-01  -9.5818870366722528e-02  -1.1622917368824702e-01  -7.3765652246406035e-02  -5.0154826143921770e-02  -1.3725962817764581e-01  -1.5451341459964427e-01  1.6893208856096002e-03  1.5457008354130314e-01  4.5291597258193417e-03  -1.6241838739105915e-01  1.5531894504629942e-01  1.3682331781871982e-03  1.5121439839690354e-01  -1.6238808079523059e-01  -1.6205012635791660e-01  -1.6159289612753150e-01  -1.6209173101956068e-01  -1.6161678870816035e-01  -1.6244443144058571e-01  -1.6178849717812563e-01  -1.6290135772781059e-01  -1.6207475399212196e-01  -1.6322633237222944e-01  -1.6228097502365982e-01  -1.6315615613982454e-01  -1.6201597836543202e-01  -1.6252598472624644e-01  -1.6124939878779929e-01  -1.6143646100406764e-01  -1.5998599256695903e-01  -1.5994137055961138e-01  -1.5832232550879849e-01  -1.5785695528488131e-01  -1.5594393105116258e-01  -1.5951844917645872e-01  -1.5650967599953075e-01  -1.5374446706164183e-01  -1.5671848113069448e-01  -1.5863173066560679e-01  -1.5407423916242430e-01  -1.5117290606610134e-01  -1.5142489503594594e-01  -1.4815942144180325e-01  -1.4829466584293255e-01  -1.4470719583162625e-01  -1.4476297044606709e-01  -1.4110653337329665e-01  -1.4082742103025725e-01  -1.3643538514435866e-01  -1.3626857776933546e-01  -1.3205961365583052e-01  -1.3146700263711386e-01  -1.2709646388934343e-01  -1.2626629683702142e-01  -1.2180558373794639e-01  -1.2075168116297072e-01  -1.1624857500454801e-01  -1.1493099584313247e-01  -1.1045547038303789e-01  -1.0883800126642262e-01  -1.0443976818830560e-01  -1.0253659612148924e-01  -9.8282658245000931e-02  -9.6038271894938299e-02  -9.2020946298707107e-02  -8.9324726499436888e-02  -1.5471235244529971e-01  -1.5639594623271311e-01  -8.5668983487244846e-02  -8.2546925252634809e-02  -7.9315883086848088e-02  -7.6197060108257345e-02  -7.3047665218668983e-02  -6.9579825094372341e-02  -6.6876508154935121e-02  -6.3081944735530124e-02  -1.4999772294076757e-01  -6.0916278972582519e-02  -5.6696115102150953e-02  -5.4858725654494941e-02  -5.0438449061362904e-02  -4.9227597929488984e-02  -4.4462337176599830e-02  -1.5166736279732898e-01  -1.5342391199353303e-01  -1.6365553384035425e-01  -4.3729655402725949e-02  -3.8680043563239612e-02  -3.8508822456444915e-02  -3.3179884928133181e-02  -3.3545147771431458e-02  -2.7994771840050166e-02  -1.5981435596412580e-01  -2.8857939623184042e-02  -2.3092387123436999e-02  -1.4033043277682833e-01  -2.4432983363996835e-02  -1.8520933886359638e-02  -2.0302733206098416e-02  -1.4273238650040161e-02  -1.6385131205264844e-02  -1.0339926978363317e-02  -1.6061678033403487e-01  -1.2693072769688973e-01  -1.2803671372565656e-02  -6.7226820334107601e-03  -1.4763238150804872e-01  -1.4862779550133268e-01  -1.4622033067613088e-01  -1.1107587435509109e-01  -9.4156785427842449e-03  -3.2598235155508102e-03  -6.3732688987913795e-03  -1.5355073573787074e-04  -3.4840535442844088e-03  2.5338915611114992e-03  -3.9520971273679525e-02  -4.6087104952035739e-04  -2.2483023595885169e-02  -5.8968327839435571e-02  -8.0898203251832438e-04  4.9956563771578477e-03  8.3335004817878255e-03  1.0641383426760754e-02  7.2973829419473394e-03  1.2721592041603091e-02  9.4671477871055877e-03  1.4661901991386169e-02  1.1424378037444900e-02  1.6349599663935295e-02  1.3216070833034587e-02  1.7904090959083060e-02  1.4902176192097712e-02  1.9268995185929411e-02  1.6362992722093260e-02  2.0515487463856549e-02  1.7824001299242928e-02  2.1755526333177778e-02  1.9128251274620159e-02  2.2772140083934071e-02  2.0357618810199499e-02  2.3655464316822399e-02  2.1340271306650629e-02  2.4459805516809090e-02  -7.9128023525641453e-02  -9.4023101164315420e-02  2.2346918545696332e-02  2.5138812276318215e-02  2.3302413729742177e-02  2.5785393399425590e-02  -1.4756394202208117e-01  -1.1280013576355820e-01  2.4153924724580611e-02  2.6319678408081238e-02  -1.2994324673744731e-01  -7.6633854127700643e-02  -1.4268483566924173e-01  -1.4321839393995450e-01  -1.4986694674609774e-01  -1.4332084501987172e-01  -1.4876912254843572e-01  -1.4266371663220129e-01  -1.4828511394684935e-01  -1.4143490818881341e-01  -1.4523247073315734e-01  -1.3922717177304345e-01  -1.4307805081547598e-01  -1.3667002298230355e-01  -1.3899068814666946e-01  -1.3352222608218819e-01  -1.3518018578208765e-01  -1.3024423545782490e-01  -1.3131780869441179e-01  -1.2674933376542305e-01  -1.2744239151054654e-01  -1.2320698238159287e-01  -1.2356001263962385e-01  -1.1959064918324452e-01  -1.1970983719913161e-01  -1.1596257389767065e-01  -1.1588020961361666e-01  -1.1236683541004072e-01  -1.1175246136966935e-01  -1.0850233044461575e-01  -1.0877071187373724e-01  -1.0515608892112882e-01  -1.0482384572776139e-01  -1.0154597618519530e-01  -1.0123469139165454e-01  -9.7981149744735416e-02  -9.7424110869631875e-02  -9.4359891793849654e-02  -1.2840799769004377e-01  -1.0497209932359060e-01  -1.1880480851476814e-01  -9.3745658441548071e-02  -9.0660987544996699e-02  -9.1047210732326508e-02  -8.7512902359043368e-02  -8.6921939894353886e-02  -8.3896953135699961e-02  -8.3138814006883874e-02  -8.0228829407095859e-02  -7.9371598458740200e-02  -7.6506678844668538e-02  -8.3754591811355736e-02  -1.5374581110280061e-01  -1.4424087902596130e-01  -7.5665517967819729e-02  -7.2726864030918437e-02  -7.3530702155894884e-02  -6.9752731946765692e-02  -6.8923084063231971e-02  -6.5992698731468458e-02  -6.5063459488231098e-02  -6.2209153709822662e-02  -1.3582127055849519e-01  -6.6561551150757917e-02  -6.1227383580137414e-02  -5.8440011862856890e-02  -1.2743583996770955e-01  -5.7505367490460563e-02  -5.4616404401547448e-02  -5.5826517939699657e-02  -5.1679513110868588e-02  -5.0683634415120096e-02  -4.7632023860299424e-02  -4.8589176427822608e-02  -4.4540754094063821e-02  -4.3602655333760940e-02  -4.0501968781690142e-02  -3.9558395813302762e-02  -3.6370694915906408e-02  -3.7340645626748166e-02  -3.3210678182775420e-02  -3.2214110151265379e-02  -2.9077277276767191e-02  -2.8122211729592273e-02  -2.4962659515512069e-02  -1.3769797481363411e-01  -1.0443537835392717e-01  -1.1926577728109930e-01  -2.4103665894736746e-02  -2.0880798898090476e-02  -2.1752799966530480e-02  -1.7516359258771121e-02  -1.6651539025770441e-02  -1.3286444386968426e-02  -1.8387346249165468e-02  2.4830624131106978e-02  2.6765672784680540e-02  2.5448164179713673e-02  2.7144201521376105e-02  2.6000499191777538e-02  2.7450833062748467e-02  -8.6198550997166640e-02  -4.8723516649772619e-02  -1.6346837082951679e-01  -1.2391474765989344e-02  -9.0926153004699146e-03  -9.6702166544987186e-02  2.2346551839539878e-02  2.6564158030835495e-02  1.3442593581635978e-02  2.6461393438680137e-02  2.7676474992286180e-02  2.8754236695805315e-02  2.8757206973102800e-02  2.7827355863595041e-02  2.8707807841886375e-02  2.7910967232897346e-02  2.8599433487692137e-02  2.7911801844652334e-02  2.8423767062363221e-02  2.7840234102619654e-02  2.8190068835685405e-02  2.7684545545709070e-02  2.7884588749901754e-02  2.7452348012879654e-02  2.7519588767912922e-02  2.7147254065998230e-02  2.7092983273843657e-02  2.6772516172773656e-02  2.6607181359263689e-02  2.6317640009686373e-02  2.6046821439821368e-02  2.5780690809584519e-02  2.5434996507847338e-02  2.5166383871982664e-02  2.4736023904781763e-02  2.4491800760035678e-02  2.3996769056561434e-02  2.3722802941616637e-02  2.3171608211066549e-02  2.2897879333817327e-02  2.2298727219292661e-02  2.8378659417810571e-02  -3.4247969416392111e-02  -6.8030187468343287e-02  -8.0766944893590070e-03  -4.7898664013531246e-03  -5.7970937010944756e-03  -1.3422664250077846e-03  -2.3939853987976416e-03  2.1648803007508397e-03  3.0954549661744036e-03  6.6228024114018411e-03  7.6723045683217295e-03  1.1172567732887160e-02  1.0220510295425689e-02  1.4758735578309886e-02  1.5568029643851365e-02  1.9261409902773467e-02  2.0056093229925347e