<?xml version="1.0"?>
<VTKFile type="UnstructuredGrid"  version="0.1"  >
<UnstructuredGrid>
<Piece  NumberOfPoints="2886" NumberOfCells="5412">
<Points>
<DataArray  type="Float64"  NumberOfComponents="3"  format="ascii">0 0.1 0  0.98 0.1 0  1 0.1 0  1 0 0  1.5 0 0  3 0 0  3 0.3 0  0 0.3 0  0.01975375321854102 0.1 0  0.03918897458218897 0.1 0  0.05831079002627837 0.1 0  0.07712425666319796 0.1 0  0.0956343475259058 0.1 0  0.1138459546796227 0.1 0  0.1317638870668193 0.1 0  0.1493928840275937 0.1 0  0.1667376092280033 0.1 0  0.1838026357802664 0.1 0  0.2005924801287244 0.1 0  0.2171115811543574 0.1 0  0.2333643037107681 0.1 0  0.2493549444060462 0.1 0  0.2650877293306821 0.1 0  0.2805668058011438 0.1 0  0.2957962848620976 0.1 0  0.3107801766802674 0.1 0  0.3255224447361181 0.1 0  0.3400269848175519 0.1 0  0.3542976327080778 0.1 0  0.3683381609158136 0.1 0  0.3821522744564845 0.1 0  0.3957436316838916 0.1 0  0.4091158196437086 0.1 0  0.4222723742184605 0.1 0  0.4352167733293057 0.1 0  0.4479524348643424 0.1 0  0.4604827295467524 0.1 0  0.4728109659990664 0.1 0  0.4849404035409129 0.1 0  0.4968742471455402 0.1 0  0.508615651843175 0.1 0  0.520167721130924 0.1 0  0.5315335063628542 0.1 0  0.5427160117228604 0.1 0  0.5537181940261912 0.1 0  0.564542961924507 0.1 0  0.575193173270606 0.1 0  0.5856716438765114 0.1 0  0.5959811458006617 0.1 0  0.6061243988680743 0.1 0  0.6161040893285659 0.1 0  0.6259228503970299 0.1 0  0.6355832809287655 0.1 0  0.6450879281079505 0.1 0  0.6544393102991295 0.1 0  0.663639896558931 0.1 0  0.6726921201956305 0.1 0  0.6815983691630338 0.1 0  0.6903610031396646 0.1 0  0.6989823343332418 0.1 0  0.7074646404270378 0.1 0  0.7158101645005117 0.1 0  0.7240211149852543 0.1 0  0.7320996585612525 0.1 0  0.7400479319727645 0.1 0  0.7478680336617921 0.1 0  0.755562036504958 0.1 0  0.7631319665092091 0.1 0  0.7705798279317605 0.1 0  0.777907588066146 0.1 0  0.7851171851013118 0.1 0  0.7922105226004981 0.1 0  0.7991894774550319 0.1 0  0.8060558928136696 0.1 0  0.812811583201334 0.1 0  0.8194583352091183 0.1 0  0.8259979035038147 0.1 0  0.8324320194413813 0.1 0  0.8387623808293405 0.1 0  0.8449906627004957 0.1 0  0.8511185094880469 0.1 0  0.8571475426008311 0.1 0  0.8630793533568246 0.1 0  0.8689155114558531 0.1 0  0.8746575581239063 0.1 0  0.8803070109173519 0.1 0  0.885865363938836 0.1 0  0.8913340851680313 0.1 0  0.8967146206523592 0.1 0  0.9020083930695622 0.1 0  0.9072167995950768 0.1 0  0.9123412183131177 0.1 0  0.9173830029719022 0.1 0  0.9223434865647732 0.1 0  0.9272239785872722 0.1 0  0.9320257720706087 0.1 0  0.9367501330378739 0.1 0  0.9413983102716995 0.1 0  0.9459715351562933 0.1 0  0.9504710127113115 0.1 0  0.9548979346500661 0.1 0  0.9592534708344373 0.1 0  0.9635387708980176 0.1 0  0.9677549682252325 0.1 0  0.971903177251235 0.1 0  0.9759844952956497 0.1 0  0.9840000000000086 0.1 0  0.987999999999974 0.1 0  0.9919999999999393 0.1 0  0.9959999999999913 0.1 0  1 0.09591793123533533 0  1 0.09133596463859224 0  1 0.08619288104391448 0  1 0.08041996484521211 0  1 0.07394008421771697 0  1 0.06666666567302955 0  1 0.05850252932209174 0  1 0.04933859630113544 0  1 0.03905242821848202 0  1 0.02750659386753798 0  1 0.01454683679239736 0  1.015625 0 0  1.03125 0 0  1.046875 0 0  1.0625 0 0  1.078125 0 0  1.09375 0 0  1.109375 0 0  1.125 0 0  1.140625 0 0  1.15625 0 0  1.171875 0 0  1.1875 0 0  1.203125 0 0  1.21875 0 0  1.234375 0 0  1.25 0 0  1.265625 0 0  1.28125 0 0  1.296875 0 0  1.3125 0 0  1.328125 0 0  1.34375 0 0  1.359375 0 0  1.375 0 0  1.390625 0 0  1.40625 0 0  1.421875 0 0  1.4375 0 0  1.453125 0 0  1.46875 0 0  1.484375 0 0  1.515920751924515 0 0  1.531989369316721 0 0  1.54820720925872 0 0  1.564575665560501 0 0  1.581096138674279 0 0  1.597770029901263 0 0  1.614598783332311 0 0  1.631583831055205 0 0  1.64872661129721 0 0  1.666028606716533 0 0  1.683491276608443 0 0  1.701116134125304 0 0  1.718904673324128 0 0  1.736858414799339 0 0  1.754978895814663 0 0  1.773267661782904 0 0  1.791726281103402 0 0  1.810356325314689 0 0  1.8291593848892 0 0  1.848137076690385 0 0  1.867291007717254 0 0  1.886622833871288 0 0  1.90613418642363 0 0  1.925826753299799 0 0  1.945702199101513 0 0  1.96576223584749 0 0  1.986008569283268 0 0  2.006442931928877 0 0  2.02706707547783 0 0  2.047882750887917 0 0  2.06889175187935 0 0  2.090095860038271 0 0  2.111496891648636 0 0  2.133096679109554 0 0  2.154897066851056 0 0  2.176899916687499 0 0  2.199107102752146 0 0  2.22152053937028 0 0  2.244142122958061 0 0  2.266973806444078 0 0  2.290017523268154 0 0  2.313275249499252 0 0  2.336748971745516 0 0  2.360440702338606 0 0  2.384352453384031 0 0  2.408486280477412 0 0  2.432844240041185 0 0  2.457428414757088 0 0  2.482240901796653 0 0  2.507283830121838 0 0  2.532559332080812 0 0  2.558069568787417 0 0  2.583816724966441 0 0  2.60980299606584 0 0  2.636030600971886 0 0  2.662501790984011 0 0  2.689218818279327 0 0  2.716183964547616 0 0  2.743399548861297 0 0  2.77086788244719 0 0  2.798591312896326 0 0  2.826572223178268 0 0  2.854812990138617 0 0  2.883316031690714 0 0  2.912083780657189 0 0  2.941118704633482 0 0  2.970423276998917 0 0  3 0.02999999999994495 0  3 0.05999999999987042 0  3 0.089999999999783 0  3 0.119999999999701 0  3 0.149999999999619 0  3 0.179999999999692 0  3 0.2099999999997737 0  3 0.2399999999998511 0  3 0.2699999999999185 0  2.970138294777171 0.3 0  2.940375666438236 0.3 0  2.910711782853056 0.3 0  2.881146331305122 0.3 0  2.851678975030285 0.3 0  2.822309388626621 0.3 0  2.793037250095074 0.3 0  2.76386223529133 0.3 0  2.734784017903872 0.3 0  2.705802289276642 0.3 0  2.676916713794697 0.3 0  2.648126987654635 0.3 0  2.619432780406184 0.3 0  2.590833779385199 0.3 0  2.562329669847737 0.3 0  2.533920134950189 0.3 0  2.505604855727852 0.3 0  2.477383539822502 0.3 0  2.449255847639465 0.3 0  2.421221492569094 0.3 0  2.393280152486815 0.3 0  2.36543151914496 0.3 0  2.337675285481809 0.3 0  2.310011142385583 0.3 0  2.282438797441587 0.3 0  2.254957931061538 0.3 0  2.227568248063605 0.3 0  2.200269436651085 0.3 0  2.173061204949961 0.3 0  2.145943251515011 0.3 0  2.118915272469994 0.3 0  2.091976978084957 0.3 0  2.065128060700849 0.3 0  2.038368218849433 0.3 0  2.01169717777258 0.3 0  1.985114624111908 0.3 0  1.958620267850966 0.3 0  1.93221382054972 0.3 0  1.905894991850698 0.3 0  1.879663489459713 0.3 0  1.853519019126419 0.3 0  1.827461291053897 0.3 0  1.801490031354372 0.3 0  1.775604937580312 0.3 0  1.74980572560258 0.3 0  1.724092118631866 0.3 0  1.698463829173586 0.3 0  1.672920575782554 0.3 0  1.647462076974085 0.3 0  1.622088043536933 0.3 0  1.5967981978949 0.3 0  1.571592267767068 0.3 0  1.546469970305736 0.3 0  1.521431023814044 0.3 0  1.496475156230927 0.3 0  1.471602093687753 0.3 0  1.446811560490646 0.3 0  1.422103279101731 0.3 0  1.397476971708191 0.3 0  1.37293238939876 0.3 0  1.348469231419202 0.3 0  1.324087248732772 0.3 0  1.299786165921677 0.3 0  1.275565710847046 0.3 0  1.251425617644257 0.3 0  1.227365618676339 0.3 0  1.203385446174014 0.3 0  1.179484853067473 0.3 0  1.155663548773374 0.3 0  1.131921292279077 0.3 0  1.108257802159295 0.3 0  1.084672829009693 0.3 0  1.061166115303374 0.3 0  1.037737392995421 0.3 0  1.01438640299116 0.3 0  0.991112899770314 0.3 0  0.9679166155523955 0.3 0  0.944797284182564 0.3 0  0.921754678526042 0.3 0  0.8987885143602501 0.3 0  0.8758985548820624 0.3 0  0.8530845484099929 0.3 0  0.8303462351786988 0.3 0  0.8076833651172373 0.3 0  0.7850956864865304 0.3 0  0.7625829601354557 0.3 0  0.7401449314598274 0.3 0  0.717781337993959 0.3 0  0.6954919649675473 0.3 0  0.6732765357561226 0.3 0  0.6511348120768439 0.3 0  0.6290665642016573 0.3 0  0.6070715355430467 0.3 0  0.5851494825775325 0.3 0  0.5633001690203812 0.3 0  0.5415233562273221 0.3 0  0.5198187909431873 0.3 0  0.4981862401387795 0.3 0  0.4766254686134248 0.3 0  0.4551362360485234 0.3 0  0.4337182975262159 0.3 0  0.4123714223228037 0.3 0  0.3910953802377493 0.3 0  0.3698899313205595 0.3 0  0.3487548463710963 0.3 0  0.3276898864081783 0.3 0  0.3066948129116018 0.3 0  0.2857694003037476 0.3 0  0.2649134227095047 0.3 0  0.2441266417321288 0.3 0  0.2234088223399122 0.3 0  0.2027597568977288 0.3 0  0.1821792020676698 0.3 0  0.1616669305402443 0.3 0  0.1412227158799362 0.3 0  0.12084633013886 0.3 0  0.1005375673448281 0.3 0  0.08029618164595353 0.3 0  0.06012194778526769 0.3 0  0.04001466495039718 0.3 0  0.01997408913631205 0.3 0  0 0.2800000000000553 0  0 0.2600000000001105 0  0 0.2400000000001658 0  0 0.2200000000002211 0  0 0.2000000000002764 0  0 0.1800000000002244 0  0 0.1600000000001691 0  0 0.140000000000115 0  0 0.1200000000000564 0  1.13346801534201 0.01255848438672509 0  1.003577645172735 0.09351054173913405 0  0.9777559943702486 0.1034978156913738 0  0.9524533750752109 0.1040889939962738 0  0.9296242411226409 0.1041520033606139 0  0.9046110503652111 0.104409422380137 0  0.8777709649694228 0.1053360318797398 0  0.8483859145648608 0.1061007868330701 0  0.8162363822948977 0.1052777104363292 0  0.7893110024210437 0.1060761643971561 0  0.7587949382612539 0.1067265405088633 0  0.7280603867732535 0.1069398153264939 0  0.6947001989413015 0.1075609887579097 0  0.6590363283767549 0.1076715322596598 0  0.6210028614493155 0.1072970410408442 0  1.1953125 0.01353164693413185 0  1.258193991486058 0.01269648635163345 0  1.3201967268638 0.01407907077719561 0  1.383538555392096 0.01434101079053473 0  1.445312500000001 0.01303671693628424 0  1.508925448095738 0.01398525724792267 0  0.9939176689634008 0.1034638089837981 0  1.120967497222226 0.2796788492172345 0  1.572835902117391 0.01424132418857359 0  1.637573277451887 0.01212536916586023 0  1.709730776795181 0.01466855431023635 0  1.005631976950563 0.07074019818158772 0  1.784944696816299 0.01454708406461822 0  0.5805605730631225 0.1101465090472147 0  1.855621181165637 0.01550931272897607 0  0.5366111276616774 0.1096761308243709 0  1.935200147913231 0.01760344159641829 0  1.214922267975168 0.2799787705802257 0  1.31178773425331 0.2792
[...]
<PointData  Scalars="pressure"> 
<DataArray  type="Float64"  Name="pressure"  format="ascii">1.6199671234466850e-01  -1.6472884487086037e-01  -2.1977064317169406e-01  -1.6321409495764072e-01  -4.3301713245158309e-02  0.0000000000000000e+00  0.0000000000000000e+00  1.6200312311679627e-01  1.5607058972693261e-01  1.5023996404092926e-01  1.4450327170061067e-01  1.3885898882020112e-01  1.3330560433317257e-01  1.2784164032014944e-01  1.2246566125549858e-01  1.1717620209090054e-01  1.1197186686212825e-01  1.0685126894014545e-01  1.0181300886668530e-01  9.6855739163088289e-02  9.1978145987898594e-02  8.7178874981495666e-02  8.2456631640005190e-02  7.7810197924400276e-02  7.3238196765653560e-02  6.8739434184852094e-02  6.4312674426342170e-02  5.9956632719256636e-02  5.5670146657249522e-02  5.1452086385748705e-02  4.7301129974097772e-02  4.3216195207472878e-02  3.9196019362613188e-02  3.5239508876937505e-02  3.1345619431091869e-02  2.7513109964638731e-02  2.3740820590682787e-02  2.0027710290436720e-02  1.6372666513636933e-02  1.2774523401045823e-02  9.2322938972587195e-03  5.7447789432667901e-03  2.3109693693952301e-03  -1.0702792159039312e-03  -4.4000186000023762e-03  -7.6789536159798978e-03  -1.0908792360522735e-02  -1.4090179024290076e-02  -1.7224196243299222e-02  -2.0312072771981646e-02  -2.3354805385248471e-02  -2.6352880046794133e-02  -2.9308209473013200e-02  -3.2221312664001821e-02  -3.5093274145625838e-02  -3.7925188565435676e-02  -4.0718020783427275e-02  -4.3472786268943332e-02  -4.6190619510889153e-02  -4.8872431271353843e-02  -5.1519161169428437e-02  -5.4131735545481230e-02  -5.6711636450663072e-02  -5.9259279471945446e-02  -6.1775870619048205e-02  -6.4262066111800659e-02  -6.6719741966315443e-02  -6.9149345090046999e-02  -7.1551160618728266e-02  -7.3926807404513767e-02  -7.6277755088704519e-02  -7.8603796659197672e-02  -8.0906837237123941e-02  -8.3187580331451488e-02  -8.5446338465090713e-02  -8.7684578092810384e-02  -8.9903153670901514e-02  -9.2102937374749144e-02  -9.4285525164430881e-02  -9.6451042467100540e-02  -9.8599954541315787e-02  -1.0073287944281141e-01  -1.0285289840791047e-01  -1.0495924679447655e-01  -1.0705254530645254e-01  -1.0913446879355759e-01  -1.1120536846223852e-01  -1.1326608306595067e-01  -1.1531756240115552e-01  -1.1736141922092486e-01  -1.1939803183412895e-01  -1.2142752050807654e-01  -1.2345184323755176e-01  -1.2547165141463126e-01  -1.2748776337447940e-01  -1.2950113285499934e-01  -1.3151254693662598e-01  -1.3352306819866647e-01  -1.3553369618173614e-01  -1.3754545664919865e-01  -1.3955899229262134e-01  -1.4157529616228579e-01  -1.4359050318274091e-01  -1.4558152076583430e-01  -1.4793052553604447e-01  -1.4823152714155674e-01  -1.5083788445242588e-01  -1.4425931228875069e-01  -1.4984114868622395e-01  -1.4911944949637079e-01  -2.0573216294367558e-01  -1.8373583441778882e-01  -1.7707416709609836e-01  -1.7225216226994022e-01  -1.6900810800163160e-01  -1.6657826905902059e-01  -1.6476180245263233e-01  -1.6343479461782429e-01  -1.6264145223114113e-01  -1.6245214243252662e-01  -1.6286218893654988e-01  -1.6365468088184582e-01  -1.6403289281610450e-01  -1.6383272138876109e-01  -1.6316959470225559e-01  -1.6213458486997984e-01  -1.6077183847056084e-01  -1.5906685775527346e-01  -1.5700719674747687e-01  -1.5462182948261746e-01  -1.5192796591959401e-01  -1.4892949966192523e-01  -1.4563986178444305e-01  -1.4206975562993451e-01  -1.3823084491153093e-01  -1.3414291959083313e-01  -1.2981828833454240e-01  -1.2526874003331126e-01  -1.2051188958371542e-01  -1.1556585122871663e-01  -1.1044028851603682e-01  -1.0516465514655556e-01  -9.9756037413918544e-02  -9.4229671333707604e-02  -8.8615464338051828e-02  -8.2931295341782979e-02  -7.7205508874112427e-02  -7.1460055193084474e-02  -6.5717018570420893e-02  -6.0007571726960467e-02  -5.4352226980007537e-02  -4.8776750903396657e-02  -3.7850765021067552e-02  -3.2509310367477000e-02  -2.7286767613264134e-02  -2.2217724927568617e-02  -1.7329872715074270e-02  -1.2625008298398096e-02  -8.1320028015400281e-03  -3.8565199197558857e-03  1.5241984844939892e-04  3.9176316917612667e-03  7.4371605064767910e-03  1.0689150788895442e-02  1.3675048489854990e-02  1.6400714659967997e-02  1.8869224053815171e-02  2.1084981777469820e-02  2.3062623430536815e-02  2.4801975743602513e-02  2.6317343078043690e-02  2.7638687447931062e-02  2.8754289575777334e-02  2.9694344779840971e-02  3.0472395326265507e-02  3.1096634950663761e-02  3.1588569837461958e-02  3.1952882310913186e-02  3.2221203427545170e-02  3.2384002555140144e-02  3.2462806991656643e-02  3.2462716625356242e-02  3.2391837589126352e-02  3.2260002303995693e-02  3.2076834377693736e-02  3.1846699994145675e-02  3.1570480211200881e-02  3.1255715886173256e-02  3.0903237508053853e-02  3.0515972413725567e-02  3.0095134761834407e-02  2.9641245666462653e-02  2.9154776662889903e-02  2.8635727234028460e-02  2.8082882957961613e-02  2.7496624949030640e-02  2.6874434020478503e-02  2.6214996944964493e-02  2.5519500436638157e-02  2.4783046009862270e-02  2.4003662729314243e-02  2.3185781958870093e-02  2.2319788575634967e-02  2.1412806412171213e-02  2.0454272620145177e-02  1.9453095152488754e-02  1.8401418190499480e-02  1.7295465826968861e-02  1.6145721381485501e-02  1.4937947597664472e-02  1.3683548786020757e-02  1.2376381756516537e-02  1.1015419514152754e-02  9.6006303477456020e-03  8.1341305053843280e-03  6.6191294140790164e-03  5.0461560008527454e-03  3.4328587268990427e-03  1.7629819404472681e-03  0.0000000000000000e+00  0.0000000000000000e+00  0.0000000000000000e+00  0.0000000000000000e+00  0.0000000000000000e+00  0.0000000000000000e+00  0.0000000000000000e+00  0.0000000000000000e+00  0.0000000000000000e+00  1.9137866000385126e-03  3.6991960168670599e-03  5.4566136849614122e-03  7.1604325887378575e-03  8.8144319569468180e-03  1.0417273043771028e-02  1.1967972003999483e-02  1.3464754603480103e-02  1.4904688272084150e-02  1.6285487402753346e-02  1.7603066710258186e-02  1.8854861938348389e-02  2.0035723322096050e-02  2.1142569917843607e-02  2.2170495904533571e-02  2.3112802679430663e-02  2.3969082329423255e-02  2.4728078362509450e-02  2.5385079135886456e-02  2.5933888501093905e-02  2.6367583211256766e-02  2.6679538072633385e-02  2.6864022891629844e-02  2.6910237764094829e-02  2.6816811160285302e-02  2.6571807808381004e-02  2.6173264141839455e-02  2.5609870304440702e-02  2.4876595365912253e-02  2.3970934000003035e-02  2.2882213989833231e-02  2.1605122560683972e-02  2.0154793463983602e-02  1.8517128879003183e-02  1.6666011725645285e-02  1.4641826355825026e-02  1.2421812053028081e-02  1.0006455273451018e-02  7.3975914296158032e-03  4.6027410749415352e-03  1.6132304109714197e-03  -1.5569447812880351e-03  -4.9164572722714215e-03  -8.4544747600792270e-03  -1.2182372027900835e-02  -1.6083552268407558e-02  -2.0159592964833047e-02  -2.4400509065127758e-02  -2.8809942427377614e-02  -3.3373086316434444e-02  -3.8086530857681919e-02  -4.2938214167439474e-02  -4.7913562453398319e-02  -5.3003303513590665e-02  -5.8191102120304913e-02  -6.3451586256366127e-02  -6.8721885211602982e-02  -7.4052608904036518e-02  -7.9353606529528622e-02  -8.4562111022345732e-02  -8.9683171663907671e-02  -9.4642290607237875e-02  -9.9418615563429083e-02  -1.0390375891563544e-01  -1.0808944743719114e-01  -1.1186357949099540e-01  -1.1521362752468423e-01  -1.1802590557820643e-01  -1.2030526755195287e-01  -1.2191839802133835e-01  -1.2288250911562534e-01  -1.2312948695074556e-01  -1.2253849823856332e-01  -1.2128651221020943e-01  -1.1925448798622360e-01  -1.1646124818335814e-01  -1.1303374296936920e-01  -1.0900557197465763e-01  -1.0450289533242807e-01  -9.9595998804098321e-02  -9.4289410757040601e-02  -8.8710645155779061e-02  -8.2897169161292653e-02  -7.6933373086917958e-02  -7.0823961429343718e-02  -6.4594521550866632e-02  -5.8292360040434602e-02  -5.1929331791755053e-02  -4.5515501030153678e-02  -3.9072073613500985e-02  -3.2603660942761001e-02  -2.6126691250881254e-02  -1.9643790055367410e-02  -1.3157277398719681e-02  -6.6773832888778308e-03  -2.0521263017040493e-04  6.2581455561978114e-03  1.2709589959216519e-02  1.9146359091279739e-02  2.5567424319574237e-02  3.1972328134330638e-02  3.8359710850180473e-02  4.4729410163320923e-02  5.1079999325035298e-02  5.7411800491730884e-02  6.3724175648333506e-02  7.0016890339637483e-02  7.6289866762223962e-02  8.2542837772182409e-02  8.8775766594824626e-02  9.4988629948794423e-02  1.0118134892830685e-01  1.0735390821666425e-01  1.1350631561934443e-01  1.1963858878719312e-01  1.2575071636150295e-01  1.3184276814097537e-01  1.3791477077582892e-01  1.4396675753704749e-01  1.4999878339998216e-01  1.5601088761255841e-01  1.6200309834291776e-01  1.6200283185934192e-01  1.6200218109811612e-01  1.6200115959907146e-01  1.6199991883222847e-01  1.6199867678525778e-01  1.6199765315138656e-01  1.6199699805374806e-01  1.6199673252690772e-01  -1.5545233770255665e-01  -1.8846338104467741e-01  -1.5156273286936850e-01  -1.3856242132706079e-01  -1.2858024955675298e-01  -1.1844653917533028e-01  -1.0825981987039193e-01  -9.7690330789739224e-02  -8.6631159820122539e-02  -7.7679674780584365e-02  -6.7777978593529381e-02  -5.8001096474893793e-02  -4.7552593573085847e-02  -3.6516745968806427e-02  -2.4856086498805680e-02  -1.4371053567171957e-01  -1.2741567646475466e-01  -1.0793464007920969e-01  -8.5705043329304245e-02  -6.3124932273335863e-02  -4.0596059306990319e-02  -1.6324779167297138e-01  -1.2184665514698888e-01  -2.0158769697428532e-02  -2.8037890324539238e-03  1.1766460275142677e-02  -1.6850102068028258e-01  2.2016943136104136e-02  -1.2543261126242532e-02  2.7800854150640188e-02  7.7266798445885330e-04  3.1112657511931607e-02  -1.1297401998437620e-01  -9.6390482960754587e-02  3.2305221331878721e-02  -7.6258918856003541e-02  1.4574075089672067e-02  -5.0044831937130101e-02  3.2076552806994750e-02  2.9428065950184549e-02  -1.6096985192801952e-01  3.1005923472649868e-02  -2.6364692496308090e-02  -1.2144569795565446e-01  4.4826674878522918e-02  2.9345777347891008e-02  -3.1735845705926774e-03  6.2321606718531444e-02  5.8667951313450964e-03  2.7120151539588661e-02  1.3637747429552491e-02  7.9611092745148854e-02  -1.1447244021802030e-01  2.4405952386665243e-02  1.9327750075161014e-02  -1.0195218831625569e-01  2.3437689338569555e-02  2.0913297441697721e-02  -8.5805445823332327e-02  9.9810254353860678e-02  1.1382697088884926e-01  -1.4016726832603198e-02  1.7817491942388405e-02  1.4138028021821869e-02  2.5822219290364826e-02  -6.7920275217959403e-02  2.6784891510824305e-02  -1.4456663063870068e-01  -4.2738950625077196e-02  2.6051382402856326e-02  1.3127849950998383e-01  -2.2924434196189194e-02  1.0279295437576788e-02  2.3473402376019144e-02  -3.3208241697465428e-03  2.2523937595489232e-02  2.0520912220640199e-02  5.4246463686715443e-02  1.6885722831219387e-02  7.3209645947720378e-02  9.1988179126332656e-02  1.2672351597604254e-02  1.2358898863550280e-01  1.6026269061789184e-03  1.5641988988700897e-01  -1.6364072749000810e-01  8.0827965147078160e-03  5.7105584657838474e-03  1.4139175790381112e-01  -1.7511073378140352e-01  -1.6300758945350441e-01  -1.1856945051180101e-01  -5.5019743772838713e-02  8.9894967729885478e-03  3.4833605931723230e-02  1.4173267002556311e-01  -4.0622871442706779e-02  -6.5358040297775338e-02  -8.6487571593077781e-02  -1.0533366590239412e-01  8.9872995759901542e-02  2.6595698808838247e-02  7.0701076861748188e-02  1.0423017284138997e-01  2.4969366945844753e-02  2.2745160161129901e-02  5.3001285105666936e-02  2.5759577521808286e-02  2.8315260661346393e-02  3.7467028424627770e-02  3.0244273951787314e-02  3.1628949495293018e-02  3.2322520765108456e-02  3.1952654987285931e-02  -3.0259204699196757e-02  2.1882690876721681e-02  2.9774528277327544e-02  2.5251397391473696e-02  7.5055884430373400e-03  1.7513581992648471e-02  5.2987090870991902e-03  -1.0613196962808828e-02  1.3368859217416506e-03  -6.4027480037028772e-03  -1.8321319242631685e-02  1.5675999660725115e-01  -3.0455319659678046e-02  -4.2105873028757512e-02  -5.2839609350086615e-02  -6.3129371519051569e-02  -7.2811206094346284e-02  -8.1971200325505256e-02  -1.5004591303743592e-01  -9.3233885395172661e-02  -1.0395335997852272e-01  -1.1435576001232432e-01  -1.3612070704281357e-01  -1.2460670381028860e-01  -9.7319816906432946e-02  -1.1758006459739048e-01  -7.5398652265697724e-02  -5.1870405457759991e-02  -1.3462257866082719e-01  -1.4976536440898000e-01  1.6812370597567234e-03  1.5626283083950920e-01  4.5068013548240056e-03  -1.6342760360755235e-01  1.5701207903325173e-01  1.3632951688417807e-03  1.5290710277990213e-01  -1.6339932035541219e-01  -1.6306244111677265e-01  -1.6260848543907849e-01  -1.6310435854136759e-01  -1.6263252996335537e-01  -1.6345725243085144e-01  -1.6280475808719932e-01  -1.6391507805621883e-01  -1.6309191776908322e-01  -1.6424201944316008e-01  -1.6330010598519776e-01  -1.6417463384350831e-01  -1.6303850174629120e-01  -1.6354664481766595e-01  -1.6227534194893151e-01  -1.6245497165264133e-01  -1.6101205186887046e-01  -1.6094929551400902e-01  -1.5934038210823243e-01  -1.5883647424589364e-01  -1.5694458138138315e-01  -1.6047482691945800e-01  -1.5754540884767557e-01  -1.5476677995862706e-01  -1.5761923346763546e-01  -1.5948760276441667e-01  -1.5512490305764159e-01  -1.5221773153732962e-01  -1.5249583276323350e-01  -1.4922888881805199e-01  -1.4938868967265659e-01  -1.4580227847582611e-01  -1.4588334860545488e-01  -1.4223266090992645e-01  -1.4197784137763877e-01  -1.3759321085395168e-01  -1.3745269891987602e-01  -1.3325458665211667e-01  -1.3268732885671999e-01  -1.2832832279052009e-01  -1.2752536224521130e-01  -1.2307496486286187e-01  -1.2205074160973121e-01  -1.1755545876409933e-01  -1.1627047918296338e-01  -1.1179904773740879e-01  -1.1021756624080097e-01  -1.0581746314881200e-01  -1.0395432989340714e-01  -9.9691840343943350e-02  -9.7489312540902248e-02  -9.3457143398743184e-02  -9.0811472357716569e-02  -1.5548481856768342e-01  -1.5707775543022506e-01  -8.7124940937371151e-02  -8.4056457999609313e-02  -8.0789145511468999e-02  -7.7725446772092366e-02  -7.4527471243321083e-02  -7.1120322452218956e-02  -6.8356736888038033e-02  -6.4626494529005651e-02  -1.5099857549357246e-01  -6.2391084372839710e-02  -5.8236970094035972e-02  -5.6305756357628987e-02  -5.1964822396124224e-02  -5.0666194192701512e-02  -4.5969473269017708e-02  -1.5226178546397806e-01  -1.5386284536553699e-01  -1.6467256715766482e-01  -4.5139268520287462e-02  -4.0158925971562842e-02  -3.9884200964002539e-02  -3.4622616447878951e-02  -3.4880703137742226e-02  -2.9395320379179031e-02  -1.6056490372993573e-01  -3.0149155728764074e-02  -2.4444585300899380e-02  -1.4141156118222187e-01  -2.5676054030288366e-02  -1.9820416620892428e-02  -2.1495814772671925e-02  -1.5516898432271505e-02  -1.7528289717077331e-02  -1.1525520126225978e-02  -1.6164542201563684e-01  -1.2812327957964625e-01  -1.3895107972825673e-02  -7.8494918814557869e-03  -1.4800951246002650e-01  -1.4881683441506832e-01  -1.4674519700640787e-01  -1.1237749281840023e-01  -1.0456274094125292e-02  -4.3278217824203697e-03  -7.3631200396256542e-03  -1.1633067317283860e-03  -4.4259588602893465e-03  1.5798254767687486e-03  -4.1091162081958538e-02  -1.6239485624821319e-03  -2.3944244185620290e-02  -6.0569231335583590e-02  -1.7058299051573031e-03  4.0942940382451554e-03  7.3640537412677136e-03  9.7311531757812049e-03  6.4453171801585668e-03  1.1867028729633031e-02  8.6608331292211509e-03  1.3860552155567699e-02  1.0661076285048051e-02  1.5598887453208740e-02  1.2492770284156358e-02  1.7199000015951770e-02  1.4215599614694926e-02  1.8606157616131467e-02  1.5709873670913650e-02  1.9890785702756344e-02  1.7202251219258956e-02  2.1166663187806661e-02  1.8535574129445065e-02  2.2215303182247594e-02  1.9791580979278616e-02  2.3128255197429327e-02  2.0797994479661155e-02  2.3959278568877748e-02  -8.0681607736152808e-02  -9.5403586425349352e-02  2.1827622295593638e-02  2.4662887504739609e-02  2.2805476778438766e-02  2.5331961528392451e-02  -1.4867208502674489e-01  -1.1416678238502072e-01  2.3678399398456004e-02  2.5887662628110750e-02  -1.3118301285490663e-01  -7.8057636979579917e-02  -1.4284488851150859e-01  -1.4315891256449592e-01  -1.4978569612471218e-01  -1.4298777275878674e-01  -1.4832630337968183e-01  -1.4203022393854992e-01  -1.4743472312641159e-01  -1.4048225810020598e-01  -1.4402238000538239e-01  -1.3798652803635444e-01  -1.4154554002696446e-01  -1.3518521309698894e-01  -1.3722226266074239e-01  -1.3185345684749813e-01  -1.3325795394418416e-01  -1.2844466831893886e-01  -1.2930772631878651e-01  -1.2486776611643265e-01  -1.2538843703572194e-01  -1.2127905574925125e-01  -1.2149224720573974e-01  -1.1764039129822342e-01  -1.1764507518037097e-01  -1.1400463959368277e-01  -1.1382873021951416e-01  -1.1041052848674579e-01  -1.0972327352332484e-01  -1.0656113413594406e-01  -1.0691116947102150e-01  -1.0329390783218763e-01  -1.0289167518766901e-01  -9.9684434971729421e-02  -9.9307805078702557e-02  -9.6121614230126273e-02  -9.5512407276981598e-02  -9.2507104259989731e-02  -1.2688250599546461e-01  -1.0320447616416722e-01  -1.1699675199604437e-01  -9.1848297924472300e-02  -8.8815564972961891e-02  -8.9254627205079901e-02  -8.5720230144320758e-02  -8.5084150774612732e-02  -8.2103783336300862e-02  -8.1309301370262863e-02  -7.8438115203556383e-02  -7.7550736661479033e-02  -7.4721327582630906e-02  -8.2008386463116437e-02  -1.5316056780254939e-01  -1.4234266285347322e-01  -7.3853320170489747e-02  -7.0945902864627333e-02  -7.1780308006061402e-02  -6.8003257763275940e-02  -6.7146340819563693e-02  -6.4243115054612471e-02  -6.3291545361892826e-02  -6.0461049937471097e-02  -1.3364458843700780e-01  -6.4840373388307837e-02  -5.9460417643629873e-02  -5.6693445237054108e-02  -1.2524139268526474e-01  -5.5743221296068839e-02  -5.2872471279599459e-02  -5.4100201178568244e-02  -4.9953676332455128e-02  -4.8942157389083633e-02  -4.5906145500108173e-02  -4.6881089656361667e-02  -4.2830181051586889e-02  -4.1877045284958968e-02  -3.8789681594251196e-02  -3.7833485604365981e-02  -3.4657321539733901e-02  -3.5640789982008612e-02  -3.1508110017014090e-02  -3.0500222582867362e-02  -2.7372814339967924e-02  -2.6408436332193017e-02  -2.3257070444385585e-02  -1.3719991881055571e-01  -1.0244209129723436e-01  -1.1712498429063845e-01  -2.2390324379425831e-02  -1.9174530107042811e-02  -2.0054849842938142e-02  -1.5816757006161333e-02  -1.4945044049354653e-02  -1.1585585247496923e-02  -1.6696201616431466e-02  2.4373727632690460e-02  2.6352680541908327e-02  2.5009718054083366e-02  2.6749778537610010e-02  2.5580264817749859e-02  2.7073855971791957e-02  -8.4328102272081026e-02  -5.0060374090470906e-02  -1.6447977669487079e-01  -1.0685015513533361e-02  -7.3910475831962036e-03  -9.4754234278405527e-02  2.1657587686874973e-02  2.6071131386187833e-02  1.2460055663704036e-02  2.6059096247259300e-02  2.7316128229986830e-02  2.8418647632230069e-02  2.8436934204027872e-02  2.7482897480583190e-02  2.8402287853514809e-02  2.7582211929196122e-02  2.8308106022197150e-02  2.7598101251627632e-02  2.8145521117244849e-02  2.7541364707467281e-02  2.7924765821865250e-02  2.7399989993604490e-02  2.7631727251173674e-02  2.7181539042968311e-02  2.7278910679331175e-02  2.6890184551308493e-02  2.6864183961804521e-02  2.6529039481506370e-02  2.6390222625688714e-02  2.6087871625230054e-02  2.5841377540825241e-02  2.5564136671441397e-02  2.5241080095765880e-02  2.4962465835486235e-02  2.4553174521056268e-02  2.4300659122006178e-02  2.3825111820387091e-02  2.3544720610576941e-02  2.3010880789509431e-02  2.2731036957677225e-02  2.2148761781996051e-02  2.7989305341091026e-02  -3.2558967385835413e-02  -6.6231876916705346e-02  -6.3705294326399211e-03  -3.0879412165794803e-03  -4.1001344449934172e-03  3.5565299839779952e-04  -7.0116260250976232e-04  3.8592038331623853e-03  4.7940512282862975e-03  8.3182244906611705e-03  9.3712823052320548e-03  1.2868787485754814e-02  1.1913205952505191e-02  1.6452521177914133e-02  1.7264753319053458e-02  2.0956002993796890e-02  2.1753064601315826e-0