<?xml version="1.0"?>
<VTKFile type="UnstructuredGrid"  version="0.1"  >
<UnstructuredGrid>
<Piece  NumberOfPoints="2886" NumberOfCells="5412">
<Points>
<DataArray  type="Float64"  NumberOfComponents="3"  format="ascii">0 0.1 0  0.98 0.1 0  1 0.1 0  1 0 0  1.5 0 0  3 0 0  3 0.3 0  0 0.3 0  0.01975375321854102 0.1 0  0.03918897458218897 0.1 0  0.05831079002627837 0.1 0  0.07712425666319796 0.1 0  0.0956343475259058 0.1 0  0.1138459546796227 0.1 0  0.1317638870668193 0.1 0  0.1493928840275937 0.1 0  0.1667376092280033 0.1 0  0.1838026357802664 0.1 0  0.2005924801287244 0.1 0  0.2171115811543574 0.1 0  0.2333643037107681 0.1 0  0.2493549444060462 0.1 0  0.2650877293306821 0.1 0  0.2805668058011438 0.1 0  0.2957962848620976 0.1 0  0.3107801766802674 0.1 0  0.3255224447361181 0.1 0  0.3400269848175519 0.1 0  0.3542976327080778 0.1 0  0.3683381609158136 0.1 0  0.3821522744564845 0.1 0  0.3957436316838916 0.1 0  0.4091158196437086 0.1 0  0.4222723742184605 0.1 0  0.4352167733293057 0.1 0  0.4479524348643424 0.1 0  0.4604827295467524 0.1 0  0.4728109659990664 0.1 0  0.4849404035409129 0.1 0  0.4968742471455402 0.1 0  0.508615651843175 0.1 0  0.520167721130924 0.1 0  0.5315335063628542 0.1 0  0.5427160117228604 0.1 0  0.5537181940261912 0.1 0  0.564542961924507 0.1 0  0.575193173270606 0.1 0  0.5856716438765114 0.1 0  0.5959811458006617 0.1 0  0.6061243988680743 0.1 0  0.6161040893285659 0.1 0  0.6259228503970299 0.1 0  0.6355832809287655 0.1 0  0.6450879281079505 0.1 0  0.6544393102991295 0.1 0  0.663639896558931 0.1 0  0.6726921201956305 0.1 0  0.6815983691630338 0.1 0  0.6903610031396646 0.1 0  0.6989823343332418 0.1 0  0.7074646404270378 0.1 0  0.7158101645005117 0.1 0  0.7240211149852543 0.1 0  0.7320996585612525 0.1 0  0.7400479319727645 0.1 0  0.7478680336617921 0.1 0  0.755562036504958 0.1 0  0.7631319665092091 0.1 0  0.7705798279317605 0.1 0  0.777907588066146 0.1 0  0.7851171851013118 0.1 0  0.7922105226004981 0.1 0  0.7991894774550319 0.1 0  0.8060558928136696 0.1 0  0.812811583201334 0.1 0  0.8194583352091183 0.1 0  0.8259979035038147 0.1 0  0.8324320194413813 0.1 0  0.8387623808293405 0.1 0  0.8449906627004957 0.1 0  0.8511185094880469 0.1 0  0.8571475426008311 0.1 0  0.8630793533568246 0.1 0  0.8689155114558531 0.1 0  0.8746575581239063 0.1 0  0.8803070109173519 0.1 0  0.885865363938836 0.1 0  0.8913340851680313 0.1 0  0.8967146206523592 0.1 0  0.9020083930695622 0.1 0  0.9072167995950768 0.1 0  0.9123412183131177 0.1 0  0.9173830029719022 0.1 0  0.9223434865647732 0.1 0  0.9272239785872722 0.1 0  0.9320257720706087 0.1 0  0.9367501330378739 0.1 0  0.9413983102716995 0.1 0  0.9459715351562933 0.1 0  0.9504710127113115 0.1 0  0.9548979346500661 0.1 0  0.9592534708344373 0.1 0  0.9635387708980176 0.1 0  0.9677549682252325 0.1 0  0.971903177251235 0.1 0  0.9759844952956497 0.1 0  0.9840000000000086 0.1 0  0.987999999999974 0.1 0  0.9919999999999393 0.1 0  0.9959999999999913 0.1 0  1 0.09591793123533533 0  1 0.09133596463859224 0  1 0.08619288104391448 0  1 0.08041996484521211 0  1 0.07394008421771697 0  1 0.06666666567302955 0  1 0.05850252932209174 0  1 0.04933859630113544 0  1 0.03905242821848202 0  1 0.02750659386753798 0  1 0.01454683679239736 0  1.015625 0 0  1.03125 0 0  1.046875 0 0  1.0625 0 0  1.078125 0 0  1.09375 0 0  1.109375 0 0  1.125 0 0  1.140625 0 0  1.15625 0 0  1.171875 0 0  1.1875 0 0  1.203125 0 0  1.21875 0 0  1.234375 0 0  1.25 0 0  1.265625 0 0  1.28125 0 0  1.296875 0 0  1.3125 0 0  1.328125 0 0  1.34375 0 0  1.359375 0 0  1.375 0 0  1.390625 0 0  1.40625 0 0  1.421875 0 0  1.4375 0 0  1.453125 0 0  1.46875 0 0  1.484375 0 0  1.515920751924515 0 0  1.531989369316721 0 0  1.54820720925872 0 0  1.564575665560501 0 0  1.581096138674279 0 0  1.597770029901263 0 0  1.614598783332311 0 0  1.631583831055205 0 0  1.64872661129721 0 0  1.666028606716533 0 0  1.683491276608443 0 0  1.701116134125304 0 0  1.718904673324128 0 0  1.736858414799339 0 0  1.754978895814663 0 0  1.773267661782904 0 0  1.791726281103402 0 0  1.810356325314689 0 0  1.8291593848892 0 0  1.848137076690385 0 0  1.867291007717254 0 0  1.886622833871288 0 0  1.90613418642363 0 0  1.925826753299799 0 0  1.945702199101513 0 0  1.96576223584749 0 0  1.986008569283268 0 0  2.006442931928877 0 0  2.02706707547783 0 0  2.047882750887917 0 0  2.06889175187935 0 0  2.090095860038271 0 0  2.111496891648636 0 0  2.133096679109554 0 0  2.154897066851056 0 0  2.176899916687499 0 0  2.199107102752146 0 0  2.22152053937028 0 0  2.244142122958061 0 0  2.266973806444078 0 0  2.290017523268154 0 0  2.313275249499252 0 0  2.336748971745516 0 0  2.360440702338606 0 0  2.384352453384031 0 0  2.408486280477412 0 0  2.432844240041185 0 0  2.457428414757088 0 0  2.482240901796653 0 0  2.507283830121838 0 0  2.532559332080812 0 0  2.558069568787417 0 0  2.583816724966441 0 0  2.60980299606584 0 0  2.636030600971886 0 0  2.662501790984011 0 0  2.689218818279327 0 0  2.716183964547616 0 0  2.743399548861297 0 0  2.77086788244719 0 0  2.798591312896326 0 0  2.826572223178268 0 0  2.854812990138617 0 0  2.883316031690714 0 0  2.912083780657189 0 0  2.941118704633482 0 0  2.970423276998917 0 0  3 0.02999999999994495 0  3 0.05999999999987042 0  3 0.089999999999783 0  3 0.119999999999701 0  3 0.149999999999619 0  3 0.179999999999692 0  3 0.2099999999997737 0  3 0.2399999999998511 0  3 0.2699999999999185 0  2.970138294777171 0.3 0  2.940375666438236 0.3 0  2.910711782853056 0.3 0  2.881146331305122 0.3 0  2.851678975030285 0.3 0  2.822309388626621 0.3 0  2.793037250095074 0.3 0  2.76386223529133 0.3 0  2.734784017903872 0.3 0  2.705802289276642 0.3 0  2.676916713794697 0.3 0  2.648126987654635 0.3 0  2.619432780406184 0.3 0  2.590833779385199 0.3 0  2.562329669847737 0.3 0  2.533920134950189 0.3 0  2.505604855727852 0.3 0  2.477383539822502 0.3 0  2.449255847639465 0.3 0  2.421221492569094 0.3 0  2.393280152486815 0.3 0  2.36543151914496 0.3 0  2.337675285481809 0.3 0  2.310011142385583 0.3 0  2.282438797441587 0.3 0  2.254957931061538 0.3 0  2.227568248063605 0.3 0  2.200269436651085 0.3 0  2.173061204949961 0.3 0  2.145943251515011 0.3 0  2.118915272469994 0.3 0  2.091976978084957 0.3 0  2.065128060700849 0.3 0  2.038368218849433 0.3 0  2.01169717777258 0.3 0  1.985114624111908 0.3 0  1.958620267850966 0.3 0  1.93221382054972 0.3 0  1.905894991850698 0.3 0  1.879663489459713 0.3 0  1.853519019126419 0.3 0  1.827461291053897 0.3 0  1.801490031354372 0.3 0  1.775604937580312 0.3 0  1.74980572560258 0.3 0  1.724092118631866 0.3 0  1.698463829173586 0.3 0  1.672920575782554 0.3 0  1.647462076974085 0.3 0  1.622088043536933 0.3 0  1.5967981978949 0.3 0  1.571592267767068 0.3 0  1.546469970305736 0.3 0  1.521431023814044 0.3 0  1.496475156230927 0.3 0  1.471602093687753 0.3 0  1.446811560490646 0.3 0  1.422103279101731 0.3 0  1.397476971708191 0.3 0  1.37293238939876 0.3 0  1.348469231419202 0.3 0  1.324087248732772 0.3 0  1.299786165921677 0.3 0  1.275565710847046 0.3 0  1.251425617644257 0.3 0  1.227365618676339 0.3 0  1.203385446174014 0.3 0  1.179484853067473 0.3 0  1.155663548773374 0.3 0  1.131921292279077 0.3 0  1.108257802159295 0.3 0  1.084672829009693 0.3 0  1.061166115303374 0.3 0  1.037737392995421 0.3 0  1.01438640299116 0.3 0  0.991112899770314 0.3 0  0.9679166155523955 0.3 0  0.944797284182564 0.3 0  0.921754678526042 0.3 0  0.8987885143602501 0.3 0  0.8758985548820624 0.3 0  0.8530845484099929 0.3 0  0.8303462351786988 0.3 0  0.8076833651172373 0.3 0  0.7850956864865304 0.3 0  0.7625829601354557 0.3 0  0.7401449314598274 0.3 0  0.717781337993959 0.3 0  0.6954919649675473 0.3 0  0.6732765357561226 0.3 0  0.6511348120768439 0.3 0  0.6290665642016573 0.3 0  0.6070715355430467 0.3 0  0.5851494825775325 0.3 0  0.5633001690203812 0.3 0  0.5415233562273221 0.3 0  0.5198187909431873 0.3 0  0.4981862401387795 0.3 0  0.4766254686134248 0.3 0  0.4551362360485234 0.3 0  0.4337182975262159 0.3 0  0.4123714223228037 0.3 0  0.3910953802377493 0.3 0  0.3698899313205595 0.3 0  0.3487548463710963 0.3 0  0.3276898864081783 0.3 0  0.3066948129116018 0.3 0  0.2857694003037476 0.3 0  0.2649134227095047 0.3 0  0.2441266417321288 0.3 0  0.2234088223399122 0.3 0  0.2027597568977288 0.3 0  0.1821792020676698 0.3 0  0.1616669305402443 0.3 0  0.1412227158799362 0.3 0  0.12084633013886 0.3 0  0.1005375673448281 0.3 0  0.08029618164595353 0.3 0  0.06012194778526769 0.3 0  0.04001466495039718 0.3 0  0.01997408913631205 0.3 0  0 0.2800000000000553 0  0 0.2600000000001105 0  0 0.2400000000001658 0  0 0.2200000000002211 0  0 0.2000000000002764 0  0 0.1800000000002244 0  0 0.1600000000001691 0  0 0.140000000000115 0  0 0.1200000000000564 0  1.13346801534201 0.01255848438672509 0  1.003577645172735 0.09351054173913405 0  0.9777559943702486 0.1034978156913738 0  0.9524533750752109 0.1040889939962738 0  0.9296242411226409 0.1041520033606139 0  0.9046110503652111 0.104409422380137 0  0.8777709649694228 0.1053360318797398 0  0.8483859145648608 0.1061007868330701 0  0.8162363822948977 0.1052777104363292 0  0.7893110024210437 0.1060761643971561 0  0.7587949382612539 0.1067265405088633 0  0.7280603867732535 0.1069398153264939 0  0.6947001989413015 0.1075609887579097 0  0.6590363283767549 0.1076715322596598 0  0.6210028614493155 0.1072970410408442 0  1.1953125 0.01353164693413185 0  1.258193991486058 0.01269648635163345 0  1.3201967268638 0.01407907077719561 0  1.383538555392096 0.01434101079053473 0  1.445312500000001 0.01303671693628424 0  1.508925448095738 0.01398525724792267 0  0.9939176689634008 0.1034638089837981 0  1.120967497222226 0.2796788492172345 0  1.572835902117391 0.01424132418857359 0  1.637573277451887 0.01212536916586023 0  1.709730776795181 0.01466855431023635 0  1.005631976950563 0.07074019818158772 0  1.784944696816299 0.01454708406461822 0  0.5805605730631225 0.1101465090472147 0  1.855621181165637 0.01550931272897607 0  0.5366111276616774 0.1096761308243709 0  1.935200147913231 0.01760344159641829 0  1.214922267975168 0.2799787705802257 0  1.31178773425331 0.2792
[...]
<PointData  Scalars="pressure"> 
<DataArray  type="Float64"  Name="pressure"  format="ascii">1.6068664012664660e-01  -1.6489495349485550e-01  -2.1811914437976748e-01  -1.6241886053680710e-01  -4.1918286210753074e-02  0.0000000000000000e+00  0.0000000000000000e+00  1.6069339376482539e-01  1.5476051769657675e-01  1.4892988889291908e-01  1.4319318876923726e-01  1.3754889311189689e-01  1.3199548983844475e-01  1.2653150053703674e-01  1.2115549004313395e-01  1.1586599107999462e-01  1.1066160786026651e-01  1.0554095297303562e-01  1.0050262474923294e-01  9.5545274849992812e-02  9.0667589223205391e-02  8.5868210193245614e-02  8.1145841941896113e-02  7.6499267679777730e-02  7.1927103080375018e-02  6.7428154627382608e-02  6.3001184216454648e-02  5.8644901184713064e-02  5.4358142698820215e-02  5.0139778721966753e-02  4.5988476950639616e-02  4.1903155830977597e-02  3.7882543229258790e-02  3.3925544352101072e-02  3.0031114206204319e-02  2.6198001407196189e-02  2.2425038441367468e-02  1.8711181924418160e-02  1.5055312586043090e-02  1.1456254300778035e-02  7.9130182906102728e-03  4.4243918295915610e-03  9.8936103219319843e-04  -2.3932302984762720e-03  -5.7244416171402177e-03  -9.0049709405425858e-03  -1.2236567752564596e-02  -1.5419865096639972e-02  -1.8555960915880524e-02  -2.1646101747040833e-02  -2.4691294001183389e-02  -2.7692011562760917e-02  -3.0650220118230685e-02  -3.3566427728631623e-02  -3.6441735626005889e-02  -3.9277256258980445e-02  -4.2073965535099615e-02  -4.4832894550448421e-02  -4.7555199531155549e-02  -5.0241801474558798e-02  -5.2893653519918718e-02  -5.5511695645225151e-02  -5.8097450791391801e-02  -6.0651323695590398e-02  -6.3174549362781995e-02  -6.5667785013009891e-02  -6.8132976067916920e-02  -7.0570554822072237e-02  -7.2980797154348312e-02  -7.5365375628466652e-02  -7.7725806191106611e-02  -8.0061844436189286e-02  -8.2375470779928711e-02  -8.4667393810418212e-02  -8.6937922606406065e-02  -8.9188577302522845e-02  -9.1420233468781073e-02  -9.3633790488947405e-02  -9.5830905922929463e-02  -9.8011702708172610e-02  -1.0017663924912644e-01  -1.0232637325805409e-01  -1.0446413002227511e-01  -1.0658909392900107e-01  -1.0870191851214760e-01  -1.1080436549864604e-01  -1.1289681091416695e-01  -1.1498014450636182e-01  -1.1705539024653717e-01  -1.1912427076929342e-01  -1.2118720526311345e-01  -1.2324436488805547e-01  -1.2529787669710238e-01  -1.2734849376704549e-01  -1.2939716109001342e-01  -1.3144500417963098e-01  -1.3349298385497280e-01  -1.3554239316826366e-01  -1.3759451007220511e-01  -1.3965070473395730e-01  -1.4171216065103368e-01  -1.4378006316529338e-01  -1.4585274624459535e-01  -1.4791199125140528e-01  -1.5027080834675488e-01  -1.5096175653725641e-01  -1.5395877872542163e-01  -1.4908200651060061e-01  -1.5442705899312345e-01  -1.5291516226617741e-01  -2.0467886656467893e-01  -1.8290352497226731e-01  -1.7627378873933086e-01  -1.7146372588055353e-01  -1.6822286869792114e-01  -1.6579332924919402e-01  -1.6397554256225019e-01  -1.6264599732510945e-01  -1.6184978680894116e-01  -1.6165789207455333e-01  -1.6206670552402225e-01  -1.6285973909547255e-01  -1.6323687745018145e-01  -1.6303458082290676e-01  -1.6236822285441482e-01  -1.6132866301163667e-01  -1.5995979027502832e-01  -1.5824676919226105e-01  -1.5617690190421671e-01  -1.5377910902979544e-01  -1.5107056362666768e-01  -1.4805507993464823e-01  -1.4474611573672000e-01  -1.4115443407065797e-01  -1.3729177065232062e-01  -1.3317811396710305e-01  -1.2882596905032229e-01  -1.2424733069988576e-01  -1.1946010346858736e-01  -1.1448273394222520e-01  -1.0932525302896572e-01  -1.0401745969052244e-01  -9.8576984675913137e-02  -9.3019407220905653e-02  -8.7375206182404352e-02  -8.1662575444868934e-02  -7.5910604137960191e-02  -7.0141521253286362e-02  -6.4377877338879438e-02  -5.8651313650723257e-02  -5.2982689085473648e-02  -4.7398100422484629e-02  -3.6467187552385767e-02  -3.1130518540762420e-02  -2.5917818162260364e-02  -2.0863800634630923e-02  -1.5996007338955582e-02  -1.1316387025195865e-02  -6.8531362488471696e-03  -2.6117897012107329e-03  1.3585016434908622e-03  5.0814051290214270e-03  8.5556605393215281e-03  1.1759751449495030e-02  1.4695633756574112e-02  1.7369867507062278e-02  1.9786117336850654e-02  2.1949299919457120e-02  2.3874660444362025e-02  2.5562551788318674e-02  2.7027568356361231e-02  2.8300222162964454e-02  2.9369091334727773e-02  3.0264641527759938e-02  3.1000627246882847e-02  3.1585335014041989e-02  3.2040436278616920e-02  3.2370646753137944e-02  3.2607358550975345e-02  3.2741284250866164e-02  3.2793710420370638e-02  3.2769683294014557e-02  3.2677198251302955e-02  3.2525888694569301e-02  3.2325152546188070e-02  3.2079188112661951e-02  3.1788806367260336e-02  3.1461277082885639e-02  3.1097320376138639e-02  3.0699669787112537e-02  3.0269403142741416e-02  2.9806908527245053e-02  2.9312523656450592e-02  2.8786125585357644e-02  2.8226417925754269e-02  2.7633645644846157e-02  2.7005247113628051e-02  2.6339843252976367e-02  2.5638488031800601e-02  2.4896304879558597e-02  2.4111295443916759e-02  2.3287777022156231e-02  2.2416194876518639e-02  2.1503569869608590e-02  2.0539419195804213e-02  1.9532536630239659e-02  1.8475140439189398e-02  1.7363431193323949e-02  1.6207875912818262e-02  1.4994302622172518e-02  1.3734045781391856e-02  1.2421017444787056e-02  1.1054195677520882e-02  9.6335786667386819e-03  8.1613074234469021e-03  6.6405505687909833e-03  5.0618677937893843e-03  3.4430021076643355e-03  1.7676312506096933e-03  0.0000000000000000e+00  0.0000000000000000e+00  0.0000000000000000e+00  0.0000000000000000e+00  0.0000000000000000e+00  0.0000000000000000e+00  0.0000000000000000e+00  0.0000000000000000e+00  0.0000000000000000e+00  1.9213000047218147e-03  3.7141072554896428e-03  5.4791629559336639e-03  7.1908443740275043e-03  8.8529332467137973e-03  1.0464136866918316e-02  1.2023507953421509e-02  1.3529294031823782e-02  1.4978590166035212e-02  1.6369149682440538e-02  1.7696913236598291e-02  1.8959354339569558e-02  2.0151348362387619e-02  2.1269844008906115e-02  2.2309944476618476e-02  2.3265014697782027e-02  2.4134621569692545e-02  2.4907558359134142e-02  2.5579117445062478e-02  2.6143105231957085e-02  2.6592617776897448e-02  2.6920985484981355e-02  2.7122504332857379e-02  2.7186424751116222e-02  2.7111099491640266e-02  2.6884844596607966e-02  2.6505508072055393e-02  2.5961770373655841e-02  2.5248575229642214e-02  2.4363354636829381e-02  2.3295470990117476e-02  2.2039564028130097e-02  2.0610631854169198e-02  1.8994527236787188e-02  1.7165278727583007e-02  1.5163359655867363e-02  1.2965496972405052e-02  1.0572688896403813e-02  7.9865030000364646e-03  5.2145906195494619e-03  2.2482212920091650e-03  -8.9874277198866311e-04  -4.2347350332482079e-03  -7.7490399987023293e-03  -1.1452857614170666e-02  -1.5330238123273662e-02  -1.9382375059812988e-02  -2.3600010725077985e-02  -2.7986359791659452e-02  -3.2527194130275869e-02  -3.7219447223900144e-02  -4.2051325836562591e-02  -4.7008933007415189e-02  -5.2083216008622750e-02  -5.7258095092925947e-02  -6.2509147988448602e-02  -6.7775652619383592e-02  -7.3105126833880332e-02  -7.8410664692926804e-02  -8.3630937943878006e-02  -8.8770023797541217e-02  -9.3754967904328024e-02  -9.8565205913094103e-02  -1.0309354234281336e-01  -1.0733236324202500e-01  -1.1117050930664224e-01  -1.1459562287594399e-01  -1.1749529250681420e-01  -1.1987394821107601e-01  -1.2159872943588083e-01  -1.2268589072673526e-01  -1.2306595176588912e-01  -1.2261505716124722e-01  -1.2150757824582724e-01  -1.1961848764699611e-01  -1.1696219239468836e-01  -1.1366186714954019e-01  -1.0974726717180180e-01  -1.0534447623038097e-01  -1.0052361484413774e-01  -9.5287508400155541e-02  -8.9767286377012201e-02  -8.4001285574095114e-02  -7.8077308770201290e-02  -7.2000036123167591e-02  -6.5796106453326411e-02  -5.9514933402808542e-02  -5.3168927893338713e-02  -4.6768588749490400e-02  -4.0336132683591347e-02  -3.3876391214073882e-02  -2.7406583394951414e-02  -2.0929470476061963e-02  -1.4447483975241857e-02  -7.9713579453895064e-03  -1.5022582757722941e-03  4.9586715026772510e-03  1.1408172412222922e-02  1.7843344127057421e-02  2.4263100731481187e-02  3.0666959837308168e-02  3.7053489752501875e-02  4.3422517395650985e-02  4.9772539617418815e-02  5.6103892209709988e-02  6.2415900760637591e-02  6.8708315750277638e-02  7.4981051765643458e-02  8.1233824826323256e-02  8.7466592458564765e-02  9.3679326738245208e-02  9.9871941536352871e-02  1.0604441698501740e-01  1.1219675783270439e-01  1.1832897913691952e-01  1.2444106542516375e-01  1.3053308690969539e-01  1.3660506784075060e-01  1.4265703969120697e-01  1.4868905718220979e-01  1.5470115778583038e-01  1.6069336767380893e-01  1.6069308696639134e-01  1.6069240141619520e-01  1.6069132527039856e-01  1.6069001810635561e-01  1.6068870959354303e-01  1.6068763119862459e-01  1.6068694108039755e-01  1.6068666138141888e-01  -1.5461487769671303e-01  -1.8753309374805249e-01  -1.5393182112461756e-01  -1.4070013030396880e-01  -1.3051316894162765e-01  -1.2022672926996597e-01  -1.0992391006304837e-01  -9.9262502494214630e-02  -8.8130804650934785e-02  -7.9135027940163069e-02  -6.9195687102458492e-02  -5.9390834878697694e-02  -4.8920215196704551e-02  -3.7867451070254556e-02  -2.6194179169651458e-02  -1.4280646871034347e-01  -1.2640978781388804e-01  -1.0680697344273488e-01  -8.4453665307299725e-02  -6.1781794534681599e-02  -3.9217278917330366e-02  -1.6599414864966719e-01  -1.2157598540895122e-01  -1.8818663798711884e-02  -1.5748571159780636e-03  1.2812182678358481e-02  -1.6770900236712363e-01  2.2849135258748706e-02  -1.3872269410230705e-02  2.8446214931259938e-02  -5.4970636551941233e-04  3.1586893803800212e-02  -1.1231749750251151e-01  -9.5521454566727976e-02  3.2647408870726591e-02  -7.5316820070480225e-02  1.3256166249589309e-02  -4.9136953009620274e-02  3.2337194840421149e-02  2.8113190302577935e-02  -1.6015988420198210e-01  3.1208095296949838e-02  -2.5557312460496397e-02  -1.2159536926077945e-01  4.3513746942554943e-02  2.9509376030578922e-02  -2.5074954138386840e-03  6.1009983338678422e-02  6.4650167384624002e-03  2.7255042603042540e-02  1.4166004000776984e-02  7.8300202896827778e-02  -1.1502818564577542e-01  2.4517825327538011e-02  1.9791605568733238e-02  -1.0283106886965208e-01  2.3837140419505461e-02  2.1002110285077768e-02  -8.6882894334784383e-02  9.8499829677763981e-02  1.1251672404713334e-01  -1.3279249156616846e-02  1.7888969722387335e-02  1.4191271303624688e-02  2.6162296845933387e-02  -6.9106790996868117e-02  2.7050056588270147e-02  -1.4686201242656882e-01  -4.3996031364023483e-02  2.6267771119117558e-02  1.2996837313214413e-01  -2.4206832472483671e-02  1.0315644732354752e-02  2.3632180017450148e-02  -4.6162147568826880e-03  2.1220306203441713e-02  2.0642199528184683e-02  5.2938810620673883e-02  1.6974375853389241e-02  7.1900962006080801e-02  9.0678947405962801e-02  1.2732352941136612e-02  1.2227935556708605e-01  1.6088601197227709e-03  1.5511001988767001e-01  -1.6284901571310112e-01  8.1178618267445483e-03  5.7292285908659398e-03  1.4008204786329156e-01  -1.7429796933923164e-01  -1.6220756605642359e-01  -1.1808318886804764e-01  -5.6250132337090884e-02  7.6893070577993532e-03  3.3527922583991149e-02  1.4042257918989517e-01  -3.9748628815048967e-02  -6.4417302704268070e-02  -8.5567064014286376e-02  -1.0454933988855292e-01  8.8562381875895324e-02  2.6898219696616193e-02  6.9389859820704738e-02  1.0292073021678226e-01  2.5155732364292929e-02  2.2845454416197564e-02  5.1689057590785882e-02  2.5881950936869392e-02  2.8463841738241277e-02  3.6153284776112050e-02  3.0425371957191624e-02  3.1857193479150309e-02  3.2624213416892235e-02  3.2353427421665165e-02  -2.8889576807159149e-02  2.0566452372792424e-02  3.0329923854027937e-02  2.5988174935567029e-02  6.1856245350030417e-03  1.8452195528579476e-02  6.4384398629328318e-03  -9.3237743218528533e-03  1.3414436603043196e-03  -7.7283386797547832e-03  -1.9654148463856852e-02  1.5544999853095848e-01  -3.1798964202563014e-02  -4.3464441342902040e-02  -5.4217567428082480e-02  -6.4532861969610389e-02  -7.4246759191687522e-02  -8.3446496369749310e-02  -1.4917892224394549e-01  -9.4774120851999114e-02  -1.0557655724827278e-01  -1.1608552507345622e-01  -1.3516991259903005e-01  -1.2647426786645119e-01  -9.6129933688744576e-02  -1.1651181625012948e-01  -7.4100054287778924e-02  -5.0501037654524635e-02  -1.3667071703434677e-01  -1.5345741177310385e-01  1.6879199801945800e-03  1.5495306942131473e-01  4.5253172847066767e-03  -1.6263176193876602e-01  1.5570201283015284e-01  1.3674160088364112e-03  1.5159737518040275e-01  -1.6260189433397312e-01  -1.6226416278237751e-01  -1.6180763430128225e-01  -1.6230584058101930e-01  -1.6183156726947623e-01  -1.6265860465220319e-01  -1.6200341036534677e-01  -1.6311575931368599e-01  -1.6228989812506348e-01  -1.6344119878400618e-01  -1.6249658689301213e-01  -1.6337166507087716e-01  -1.6223236195616411e-01  -1.6274199857575711e-01  -1.6146655019066355e-01  -1.6165201403870946e-01  -1.6020315651248615e-01  -1.6015454687861735e-01  -1.5853762021206869e-01  -1.5806361826146434e-01  -1.5615504621354157e-01  -1.5972019717081662e-01  -1.5672874720215385e-01  -1.5396011315075561e-01  -1.5690751502352832e-01  -1.5881118079765547e-01  -1.5429638143457106e-01  -1.5139320611105359e-01  -1.5165126379213820e-01  -1.4838475464347731e-01  -1.4852579027443191e-01  -1.4493766489164173e-01  -1.4499947193861368e-01  -1.4134333487680548e-01  -1.4107002145246672e-01  -1.3667833183153710e-01  -1.3651789640439052e-01  -1.3231005254202502e-01  -1.3172350437258060e-01  -1.2735412192381446e-01  -1.2653040270103902e-01  -1.2207047731450558e-01  -1.2102353613281190e-01  -1.1652059748479132e-01  -1.1521056635814296e-01  -1.1073436735093103e-01  -1.0912509314951921e-01  -1.0472487470688947e-01  -1.0283068694685005e-01  -9.8573355159512405e-02  -9.6338180790657202e-02  -9.2316225285293596e-02  -8.9630991859022763e-02  -1.5487272392255724e-01  -1.5653674379748345e-01  -8.5967206964828513e-02  -8.2856602745841501e-02  -7.9616592350021026e-02  -7.6509436337088566e-02  -7.3348538898308405e-02  -6.9893400660197585e-02  -6.7176317413069814e-02  -6.3395045564183503e-02  -1.5020779875859006e-01  -6.1213875392409793e-02  -5.7007157186724416e-02  -5.5149395182476899e-02  -5.0745233028956595e-02  -4.9515641396465457e-02  -4.4763985324425444e-02  -1.5178801384017634e-01  -1.5351089716389010e-01  -1.6387076010846599e-01  -4.4010817920915331e-02  -3.8974781124861246e-02  -3.8782155296186352e-02  -3.3466205558797674e-02  -3.3809615987680640e-02  -2.8271577855402019e-02  -1.5997085271989298e-01  -2.9112757350259165e-02  -2.3358555012894029e-02  -1.4055651380586204e-01  -2.4677502575547180e-02  -1.8775725933488530e-02  -2.0536710471637670e-02  -1.4516176457376191e-02  -1.6608689374001381e-02  -1.0570697430670283e-02  -1.6083448093389874e-01  -1.2717890622743466e-01  -1.3016578131918763e-02  -6.9412911600255905e-03  -1.4770459035949557e-01  -1.4865915749628475e-01  -1.4632449635577480e-01  -1.1134489617595499e-01  -9.6182055869802156e-03  -3.4663607248200060e-03  -6.5655678081243101e-03  -3.4827133396039828e-04  -3.6667393245470234e-03  2.3503415736340154e-03  -3.9834804745235548e-02  -6.8511396935135938e-04  -2.2771054007224380e-02  -5.9292715026192044e-02  -9.8269576406963309e-04  4.8225968453270950e-03  8.1485855851998468e-03  1.0468269071210238e-02  7.1340851694690665e-03  1.2559492573943487e-02  9.3128767497038592e-03  1.4510266879865015e-02  1.1278530819964527e-02  1.6207822769826952e-02  1.3078016730251834e-02  1.7771163487063816e-02  1.4771266317787425e-02  1.9144210355242948e-02  1.6238533087367640e-02  2.0398017568612901e-02  1.7705625578178376e-02  2.1644970337370922e-02  1.9015490762521056e-02  2.2667689106947480e-02  2.0250017162356065e-02  2.3556643113241685e-02  2.1237210754903389e-02  2.4366046434359641e-02  -7.9446763287996838e-02  -9.4305916781991767e-02  2.2248308822539677e-02  2.5049713247278390e-02  2.3208163662478954e-02  2.5700570686379400e-02  -1.4779826681327782e-01  -1.1308565034814774e-01  2.4063851249061192e-02  2.6238923650774626e-02  -1.3020411747448957e-01  -7.6922894123015437e-02  -1.4270854912229955e-01  -1.4319440183451979e-01  -1.4983955779774255e-01  -1.4323726108819215e-01  -1.4866260741551682e-01  -1.4251453485293097e-01  -1.4808951049824723e-01  -1.4121591426956337e-01  -1.4495779610843965e-01  -1.3894501324317307e-01  -1.4273257305928991e-01  -1.3633423603401137e-01  -1.3859311561304244e-01  -1.3314593665011104e-01  -1.3474859429957117e-01  -1.2983910694719819e-01  -1.3086671231112973e-01  -1.2632607536400906e-01  -1.2698149020785679e-01  -1.2277344029176794e-01  -1.2309594302882394e-01  -1.1915211201923068e-01  -1.1924632002587110e-01  -1.1552227700256128e-01  -1.1541951921966576e-01  -1.1192683413662328e-01  -1.1129658115094447e-01  -1.0806557478239896e-01  -1.0835171269060191e-01  -1.0473647999354241e-01  -1.0438902772471659e-01  -1.0112648354681254e-01  -1.0080100852865806e-01  -9.7562079805963944e-02  -9.6993718726808190e-02  -9.3942279519334260e-02  -1.2806254778772108e-01  -1.0457302034340347e-01  -1.1839723573614586e-01  -9.3318377996694568e-02  -9.0244970429222943e-02  -9.0642643226510292e-02  -8.7108312934724139e-02  -8.6507578550742523e-02  -8.3492255971697751e-02  -8.2726249025621326e-02  -7.9824665998088420e-02  -7.8960911309127663e-02  -7.6103679235287894e-02  -8.3360059542346376e-02  -1.5360903922098185e-01  -1.4381541932957165e-01  -7.5256711200721471e-02  -7.2324818026656829e-02  -7.3135264006953055e-02  -6.9357495035895542e-02  -6.8521954515749231e-02  -6.5597441132786066e-02  -6.4663378307912342e-02  -6.1814218988943674e-02  -1.3533394171270716e-01  -6.6172429025539492e-02  -6.0828375965874079e-02  -5.8045412485862008e-02  -1.2694417987050571e-01  -5.7107405036822476e-02  -5.4222376900187663e-02  -5.5436291070846577e-02  -5.1289392210905171e-02  -5.0290140254252443e-02  -4.7241896425311979e-02  -4.8202884618575692e-02  -4.4153927534204301e-02  -4.3212588173922685e-02  -4.0114774275728862e-02  -3.9168481885017425e-02  -3.5983268001817788e-02  -3.6956129691730615e-02  -3.2825578850051419e-02  -3.1826574175002641e-02  -2.8691770973931198e-02  -2.7734701508500055e-02  -2.4576911889899248e-02  -1.3757742297601205e-01  -1.0398727031835533e-01  -1.1878564215431972e-01  -2.3716250559057826e-02  -2.0494906108289884e-02  -2.1368695925325639e-02  -1.7131900502434311e-02  -1.6265598679533651e-02  -1.2901716110324783e-02  -1.8004705486718800e-02  2.4744163547062981e-02  2.6688532164075431e-02  2.5365307405433052e-02  2.7070600535295111e-02  2.5921219009209805e-02  2.7380570999996252e-02  -8.5777112881652823e-02  -4.8990116755640252e-02  -1.6368227195239021e-01  -1.2005543172928766e-02  -8.7077354672868285e-03  -9.6263906414740502e-02  2.2218400225623085e-02  2.6473159547387343e-02  1.3256707553288541e-02  2.6385642488880274e-02  2.7609402458735971e-02  2.8692617057589818e-02  2.8698430944068765e-02  2.7763339985270891e-02  2.8651783518112497e-02  2.7849984347777176e-02  2.8546065215664013e-02  2.7853729236403790e-02  2.8372845743695363e-02  2.7785034882328846e-02  2.8141577856736016e-02  2.7632119669909090e-02  2.7838434571459087e-02  2.7402588032820082e-02  2.7475729931176834e-02  2.7100160869483175e-02  2.7051365087521550e-02  2.6728059867341312e-02  2.6567800623050492e-02  2.6275837249340614e-02  2.6009614986164196e-02  2.5741441889823025e-02  2.5399968204002681e-02  2.5129571665139499e-02  2.4703082702891101e-02  2.4457440436506786e-02  2.3965936996641336e-02  2.3690924464949165e-02  2.3142828166518248e-02  2.2868157847586387e-02  2.2271965586811580e-02  2.8307087583269452e-02  -3.3865790636066539e-02  -6.7624395796594988e-02  -7.6908271427296752e-03  -4.4049105164356448e-03  -5.4132040170909628e-03  -9.5817101044951794e-04  -2.0109838419663712e-03  2.5482038439365454e-03  3.4796951606872934e-03  7.0063614260559908e-03  8.0566260892944632e-03  1.1556297525353070e-02  1.0603484629815901e-02  1.5141943500059030e-02  1.5951867145463264e-02  1.9644790712511465e-02  2.0439983476545860e