<?xml version="1.0"?>
<VTKFile type="UnstructuredGrid"  version="0.1"  >
<UnstructuredGrid>
<Piece  NumberOfPoints="2886" NumberOfCells="5412">
<Points>
<DataArray  type="Float64"  NumberOfComponents="3"  format="ascii">0 0.1 0  0.98 0.1 0  1 0.1 0  1 0 0  1.5 0 0  3 0 0  3 0.3 0  0 0.3 0  0.01975375321854102 0.1 0  0.03918897458218897 0.1 0  0.05831079002627837 0.1 0  0.07712425666319796 0.1 0  0.0956343475259058 0.1 0  0.1138459546796227 0.1 0  0.1317638870668193 0.1 0  0.1493928840275937 0.1 0  0.1667376092280033 0.1 0  0.1838026357802664 0.1 0  0.2005924801287244 0.1 0  0.2171115811543574 0.1 0  0.2333643037107681 0.1 0  0.2493549444060462 0.1 0  0.2650877293306821 0.1 0  0.2805668058011438 0.1 0  0.2957962848620976 0.1 0  0.3107801766802674 0.1 0  0.3255224447361181 0.1 0  0.3400269848175519 0.1 0  0.3542976327080778 0.1 0  0.3683381609158136 0.1 0  0.3821522744564845 0.1 0  0.3957436316838916 0.1 0  0.4091158196437086 0.1 0  0.4222723742184605 0.1 0  0.4352167733293057 0.1 0  0.4479524348643424 0.1 0  0.4604827295467524 0.1 0  0.4728109659990664 0.1 0  0.4849404035409129 0.1 0  0.4968742471455402 0.1 0  0.508615651843175 0.1 0  0.520167721130924 0.1 0  0.5315335063628542 0.1 0  0.5427160117228604 0.1 0  0.5537181940261912 0.1 0  0.564542961924507 0.1 0  0.575193173270606 0.1 0  0.5856716438765114 0.1 0  0.5959811458006617 0.1 0  0.6061243988680743 0.1 0  0.6161040893285659 0.1 0  0.6259228503970299 0.1 0  0.6355832809287655 0.1 0  0.6450879281079505 0.1 0  0.6544393102991295 0.1 0  0.663639896558931 0.1 0  0.6726921201956305 0.1 0  0.6815983691630338 0.1 0  0.6903610031396646 0.1 0  0.6989823343332418 0.1 0  0.7074646404270378 0.1 0  0.7158101645005117 0.1 0  0.7240211149852543 0.1 0  0.7320996585612525 0.1 0  0.7400479319727645 0.1 0  0.7478680336617921 0.1 0  0.755562036504958 0.1 0  0.7631319665092091 0.1 0  0.7705798279317605 0.1 0  0.777907588066146 0.1 0  0.7851171851013118 0.1 0  0.7922105226004981 0.1 0  0.7991894774550319 0.1 0  0.8060558928136696 0.1 0  0.812811583201334 0.1 0  0.8194583352091183 0.1 0  0.8259979035038147 0.1 0  0.8324320194413813 0.1 0  0.8387623808293405 0.1 0  0.8449906627004957 0.1 0  0.8511185094880469 0.1 0  0.8571475426008311 0.1 0  0.8630793533568246 0.1 0  0.8689155114558531 0.1 0  0.8746575581239063 0.1 0  0.8803070109173519 0.1 0  0.885865363938836 0.1 0  0.8913340851680313 0.1 0  0.8967146206523592 0.1 0  0.9020083930695622 0.1 0  0.9072167995950768 0.1 0  0.9123412183131177 0.1 0  0.9173830029719022 0.1 0  0.9223434865647732 0.1 0  0.9272239785872722 0.1 0  0.9320257720706087 0.1 0  0.9367501330378739 0.1 0  0.9413983102716995 0.1 0  0.9459715351562933 0.1 0  0.9504710127113115 0.1 0  0.9548979346500661 0.1 0  0.9592534708344373 0.1 0  0.9635387708980176 0.1 0  0.9677549682252325 0.1 0  0.971903177251235 0.1 0  0.9759844952956497 0.1 0  0.9840000000000086 0.1 0  0.987999999999974 0.1 0  0.9919999999999393 0.1 0  0.9959999999999913 0.1 0  1 0.09591793123533533 0  1 0.09133596463859224 0  1 0.08619288104391448 0  1 0.08041996484521211 0  1 0.07394008421771697 0  1 0.06666666567302955 0  1 0.05850252932209174 0  1 0.04933859630113544 0  1 0.03905242821848202 0  1 0.02750659386753798 0  1 0.01454683679239736 0  1.015625 0 0  1.03125 0 0  1.046875 0 0  1.0625 0 0  1.078125 0 0  1.09375 0 0  1.109375 0 0  1.125 0 0  1.140625 0 0  1.15625 0 0  1.171875 0 0  1.1875 0 0  1.203125 0 0  1.21875 0 0  1.234375 0 0  1.25 0 0  1.265625 0 0  1.28125 0 0  1.296875 0 0  1.3125 0 0  1.328125 0 0  1.34375 0 0  1.359375 0 0  1.375 0 0  1.390625 0 0  1.40625 0 0  1.421875 0 0  1.4375 0 0  1.453125 0 0  1.46875 0 0  1.484375 0 0  1.515920751924515 0 0  1.531989369316721 0 0  1.54820720925872 0 0  1.564575665560501 0 0  1.581096138674279 0 0  1.597770029901263 0 0  1.614598783332311 0 0  1.631583831055205 0 0  1.64872661129721 0 0  1.666028606716533 0 0  1.683491276608443 0 0  1.701116134125304 0 0  1.718904673324128 0 0  1.736858414799339 0 0  1.754978895814663 0 0  1.773267661782904 0 0  1.791726281103402 0 0  1.810356325314689 0 0  1.8291593848892 0 0  1.848137076690385 0 0  1.867291007717254 0 0  1.886622833871288 0 0  1.90613418642363 0 0  1.925826753299799 0 0  1.945702199101513 0 0  1.96576223584749 0 0  1.986008569283268 0 0  2.006442931928877 0 0  2.02706707547783 0 0  2.047882750887917 0 0  2.06889175187935 0 0  2.090095860038271 0 0  2.111496891648636 0 0  2.133096679109554 0 0  2.154897066851056 0 0  2.176899916687499 0 0  2.199107102752146 0 0  2.22152053937028 0 0  2.244142122958061 0 0  2.266973806444078 0 0  2.290017523268154 0 0  2.313275249499252 0 0  2.336748971745516 0 0  2.360440702338606 0 0  2.384352453384031 0 0  2.408486280477412 0 0  2.432844240041185 0 0  2.457428414757088 0 0  2.482240901796653 0 0  2.507283830121838 0 0  2.532559332080812 0 0  2.558069568787417 0 0  2.583816724966441 0 0  2.60980299606584 0 0  2.636030600971886 0 0  2.662501790984011 0 0  2.689218818279327 0 0  2.716183964547616 0 0  2.743399548861297 0 0  2.77086788244719 0 0  2.798591312896326 0 0  2.826572223178268 0 0  2.854812990138617 0 0  2.883316031690714 0 0  2.912083780657189 0 0  2.941118704633482 0 0  2.970423276998917 0 0  3 0.02999999999994495 0  3 0.05999999999987042 0  3 0.089999999999783 0  3 0.119999999999701 0  3 0.149999999999619 0  3 0.179999999999692 0  3 0.2099999999997737 0  3 0.2399999999998511 0  3 0.2699999999999185 0  2.970138294777171 0.3 0  2.940375666438236 0.3 0  2.910711782853056 0.3 0  2.881146331305122 0.3 0  2.851678975030285 0.3 0  2.822309388626621 0.3 0  2.793037250095074 0.3 0  2.76386223529133 0.3 0  2.734784017903872 0.3 0  2.705802289276642 0.3 0  2.676916713794697 0.3 0  2.648126987654635 0.3 0  2.619432780406184 0.3 0  2.590833779385199 0.3 0  2.562329669847737 0.3 0  2.533920134950189 0.3 0  2.505604855727852 0.3 0  2.477383539822502 0.3 0  2.449255847639465 0.3 0  2.421221492569094 0.3 0  2.393280152486815 0.3 0  2.36543151914496 0.3 0  2.337675285481809 0.3 0  2.310011142385583 0.3 0  2.282438797441587 0.3 0  2.254957931061538 0.3 0  2.227568248063605 0.3 0  2.200269436651085 0.3 0  2.173061204949961 0.3 0  2.145943251515011 0.3 0  2.118915272469994 0.3 0  2.091976978084957 0.3 0  2.065128060700849 0.3 0  2.038368218849433 0.3 0  2.01169717777258 0.3 0  1.985114624111908 0.3 0  1.958620267850966 0.3 0  1.93221382054972 0.3 0  1.905894991850698 0.3 0  1.879663489459713 0.3 0  1.853519019126419 0.3 0  1.827461291053897 0.3 0  1.801490031354372 0.3 0  1.775604937580312 0.3 0  1.74980572560258 0.3 0  1.724092118631866 0.3 0  1.698463829173586 0.3 0  1.672920575782554 0.3 0  1.647462076974085 0.3 0  1.622088043536933 0.3 0  1.5967981978949 0.3 0  1.571592267767068 0.3 0  1.546469970305736 0.3 0  1.521431023814044 0.3 0  1.496475156230927 0.3 0  1.471602093687753 0.3 0  1.446811560490646 0.3 0  1.422103279101731 0.3 0  1.397476971708191 0.3 0  1.37293238939876 0.3 0  1.348469231419202 0.3 0  1.324087248732772 0.3 0  1.299786165921677 0.3 0  1.275565710847046 0.3 0  1.251425617644257 0.3 0  1.227365618676339 0.3 0  1.203385446174014 0.3 0  1.179484853067473 0.3 0  1.155663548773374 0.3 0  1.131921292279077 0.3 0  1.108257802159295 0.3 0  1.084672829009693 0.3 0  1.061166115303374 0.3 0  1.037737392995421 0.3 0  1.01438640299116 0.3 0  0.991112899770314 0.3 0  0.9679166155523955 0.3 0  0.944797284182564 0.3 0  0.921754678526042 0.3 0  0.8987885143602501 0.3 0  0.8758985548820624 0.3 0  0.8530845484099929 0.3 0  0.8303462351786988 0.3 0  0.8076833651172373 0.3 0  0.7850956864865304 0.3 0  0.7625829601354557 0.3 0  0.7401449314598274 0.3 0  0.717781337993959 0.3 0  0.6954919649675473 0.3 0  0.6732765357561226 0.3 0  0.6511348120768439 0.3 0  0.6290665642016573 0.3 0  0.6070715355430467 0.3 0  0.5851494825775325 0.3 0  0.5633001690203812 0.3 0  0.5415233562273221 0.3 0  0.5198187909431873 0.3 0  0.4981862401387795 0.3 0  0.4766254686134248 0.3 0  0.4551362360485234 0.3 0  0.4337182975262159 0.3 0  0.4123714223228037 0.3 0  0.3910953802377493 0.3 0  0.3698899313205595 0.3 0  0.3487548463710963 0.3 0  0.3276898864081783 0.3 0  0.3066948129116018 0.3 0  0.2857694003037476 0.3 0  0.2649134227095047 0.3 0  0.2441266417321288 0.3 0  0.2234088223399122 0.3 0  0.2027597568977288 0.3 0  0.1821792020676698 0.3 0  0.1616669305402443 0.3 0  0.1412227158799362 0.3 0  0.12084633013886 0.3 0  0.1005375673448281 0.3 0  0.08029618164595353 0.3 0  0.06012194778526769 0.3 0  0.04001466495039718 0.3 0  0.01997408913631205 0.3 0  0 0.2800000000000553 0  0 0.2600000000001105 0  0 0.2400000000001658 0  0 0.2200000000002211 0  0 0.2000000000002764 0  0 0.1800000000002244 0  0 0.1600000000001691 0  0 0.140000000000115 0  0 0.1200000000000564 0  1.13346801534201 0.01255848438672509 0  1.003577645172735 0.09351054173913405 0  0.9777559943702486 0.1034978156913738 0  0.9524533750752109 0.1040889939962738 0  0.9296242411226409 0.1041520033606139 0  0.9046110503652111 0.104409422380137 0  0.8777709649694228 0.1053360318797398 0  0.8483859145648608 0.1061007868330701 0  0.8162363822948977 0.1052777104363292 0  0.7893110024210437 0.1060761643971561 0  0.7587949382612539 0.1067265405088633 0  0.7280603867732535 0.1069398153264939 0  0.6947001989413015 0.1075609887579097 0  0.6590363283767549 0.1076715322596598 0  0.6210028614493155 0.1072970410408442 0  1.1953125 0.01353164693413185 0  1.258193991486058 0.01269648635163345 0  1.3201967268638 0.01407907077719561 0  1.383538555392096 0.01434101079053473 0  1.445312500000001 0.01303671693628424 0  1.508925448095738 0.01398525724792267 0  0.9939176689634008 0.1034638089837981 0  1.120967497222226 0.2796788492172345 0  1.572835902117391 0.01424132418857359 0  1.637573277451887 0.01212536916586023 0  1.709730776795181 0.01466855431023635 0  1.005631976950563 0.07074019818158772 0  1.784944696816299 0.01454708406461822 0  0.5805605730631225 0.1101465090472147 0  1.855621181165637 0.01550931272897607 0  0.5366111276616774 0.1096761308243709 0  1.935200147913231 0.01760344159641829 0  1.214922267975168 0.2799787705802257 0  1.31178773425331 0.2792
[...]
<PointData  Scalars="pressure"> 
<DataArray  type="Float64"  Name="pressure"  format="ascii">1.5554248239029855e-01  -1.6604690399400626e-01  -2.1232987135213521e-01  -1.5956586684773480e-01  -3.7721012018662591e-02  0.0000000000000000e+00  0.0000000000000000e+00  1.5555042078248965e-01  1.4961636058698355e-01  1.4378572087741551e-01  1.3804899356405614e-01  1.3240465321587966e-01  1.2685118421749433e-01  1.2138710630688043e-01  1.1601098562205292e-01  1.1072134697078102e-01  1.0551679515374607e-01  1.0039594004715234e-01  9.5357371909698382e-02  9.0399739466791820e-02  8.5521727877673412e-02  8.0721967549650109e-02  7.5999157838254089e-02  7.1352086651582977e-02  6.6779343488803752e-02  6.2279736490415495e-02  5.7852019055779323e-02  5.3494879363398362e-02  4.9207152606493207e-02  4.4987708830599875e-02  4.0835177648342706e-02  3.6748480182342759e-02  3.2726310320084939e-02  2.8767567689729691e-02  2.4871206518664406e-02  2.1035936661023234e-02  1.7260563387164158e-02  1.3544034539323098e-02  9.8852063403612970e-03  6.2828654337605608e-03  2.7360159083803905e-03  -7.5660399922463804e-04  -4.1960253419085049e-03  -7.5834483079451204e-03  -1.0919961872851949e-02  -1.4206235193659409e-02  -1.7444171685309543e-02  -2.0634366972608904e-02  -2.3777967679664988e-02  -2.6876293146222696e-02  -2.9930384908474571e-02  -3.2940665038019616e-02  -3.5909302765109889e-02  -3.8836763311260444e-02  -4.1724209061494100e-02  -4.4572818041899075e-02  -4.7383609507567995e-02  -5.0157671189753415e-02  -5.2896239161970414e-02  -5.5600275377716168e-02  -5.8270782497213749e-02  -6.0908750472238170e-02  -6.3515855263002768e-02  -6.6092462577362732e-02  -6.8639915870603377e-02  -7.1158880293493723e-02  -7.3651546163753176e-02  -7.6118314101565596e-02  -7.8559413797373856e-02  -8.0976719455917792e-02  -8.3371922649031954e-02  -8.5744644599981185e-02  -8.8097139095394073e-02  -9.0430150870189893e-02  -9.2743968192777804e-02  -9.5040314828626016e-02  -9.7320149852441112e-02  -9.9584475885257762e-02  -1.0183519290930193e-01  -1.0407240336883700e-01  -1.0629657259913648e-01  -1.0850847182548522e-01  -1.1071190488394191e-01  -1.1290586470738594e-01  -1.1509112884363350e-01  -1.1726980187027211e-01  -1.1944235830297865e-01  -1.2160989549797439e-01  -1.2377371971203310e-01  -1.2593599954257156e-01  -1.2809732056370229e-01  -1.3025806260910408e-01  -1.3242102514764495e-01  -1.3458737673857632e-01  -1.3675858222492462e-01  -1.3893646592933262e-01  -1.4112270945140210e-01  -1.4331955734006843e-01  -1.4552944153416211e-01  -1.4775517176753866e-01  -1.5000013542235424e-01  -1.5226643887798058e-01  -1.5456086755898843e-01  -1.5688347231262839e-01  -1.5929646813341536e-01  -1.6145082666896654e-01  -1.6619437147919894e-01  -1.6752391973156083e-01  -1.7178217826448411e-01  -1.6734966424262201e-01  -2.0088265476912620e-01  -1.7992721470933851e-01  -1.7340510834912920e-01  -1.6863615437467844e-01  -1.6540584533198688e-01  -1.6297707262570871e-01  -1.6115464891750270e-01  -1.5981625663837115e-01  -1.5900993586903248e-01  -1.5880874799992326e-01  -1.5921292725016600e-01  -1.6000767191757526e-01  -1.6038061339616999e-01  -1.6017020876919352e-01  -1.5949162180209628e-01  -1.5843500589028009e-01  -1.5704351905968642e-01  -1.5530140414830590e-01  -1.5319531769136832e-01  -1.5075427625029172e-01  -1.4799562819278061e-01  -1.4492323981997995e-01  -1.4155098393925358e-01  -1.3789018828215560e-01  -1.3395316687236897e-01  -1.2976087204894030e-01  -1.2532680088575518e-01  -1.2066397147858775e-01  -1.1579150082903682e-01  -1.1072915518829690e-01  -1.0548863981019398e-01  -1.0010060388725762e-01  -9.4584846744244069e-02  -8.8958067145391312e-02  -8.3252420062751978e-02  -7.7486988392932277e-02  -7.1693131712781910e-02  -6.5893596862542800e-02  -6.0112080532109674e-02  -5.4381122768380745e-02  -4.8722255447137090e-02  -4.3161995004559264e-02  -3.2324518741215238e-02  -2.7057763079699357e-02  -2.1930429196330335e-02  -1.6976515467354882e-02  -1.2222211112853834e-02  -7.6700097724033654e-03  -3.3446314974448200e-03  7.4894381382577225e-04  4.5621637069592569e-03  8.1210299087698615e-03  1.1426832884843847e-02  1.4459480034883969e-02  1.7222392066630742e-02  1.9724214766215699e-02  2.1970260194041569e-02  2.3966782002928819e-02  2.5730572855152206e-02  2.7263455981557522e-02  2.8580323305325575e-02  2.9713115823938038e-02  3.0651060225678942e-02  3.1424979660375447e-02  3.2049143420559319e-02  3.2531901392177105e-02  3.2895217452016644e-02  3.3143499065429016e-02  3.3307886703887332e-02  3.3379252400184738e-02  3.3378170384530524e-02  3.3309505736716677e-02  3.3180658353859215e-02  3.3000378772003236e-02  3.2777126907521360e-02  3.2514235417752099e-02  3.2211817505609246e-02  3.1875845442113845e-02  3.1506141006806085e-02  3.1104332356163635e-02  3.0670558885927891e-02  3.0204359361266270e-02  2.9705329791595566e-02  2.9172757748398837e-02  2.8605019342491423e-02  2.8002101941670667e-02  2.7361486104774260e-02  2.6681991566713574e-02  2.5964894186879167e-02  2.5205780607575515e-02  2.4403053473948520e-02  2.3561503845304654e-02  2.2671880701953084e-02  2.1741519090274771e-02  2.0760201395731117e-02  1.9736616009922849e-02  1.8663179600314841e-02  1.7536033049652892e-02  1.6365287267651896e-02  1.5137039742701724e-02  1.3862114749832549e-02  1.2534540340370602e-02  1.1153195962178524e-02  9.7182173414325675e-03  8.2316283360084879e-03  6.6965414938071569e-03  5.1035878462765017e-03  3.4705728486691600e-03  1.7814879074295154e-03  0.0000000000000000e+00  0.0000000000000000e+00  0.0000000000000000e+00  0.0000000000000000e+00  0.0000000000000000e+00  0.0000000000000000e+00  0.0000000000000000e+00  0.0000000000000000e+00  0.0000000000000000e+00  1.9296416533641783e-03  3.7330284063376309e-03  5.5100345613020001e-03  7.2346508097551271e-03  8.9107345001352943e-03  1.0537143747336213e-02  1.2113058858492631e-02  1.3636788478041220e-02  1.5105435188069812e-02  1.6516769487533996e-02  1.7866666623719298e-02  1.9152541523472233e-02  2.0369182120429020e-02  2.1513501283255930e-02  2.2580633671254565e-02  2.3564218216177730e-02  2.4464095401015035e-02  2.5269693497923611e-02  2.5976990841624650e-02  2.6580612917110603e-02  2.7074530984721689e-02  2.7452738270400911e-02  2.7710236397619745e-02  2.7836589397290688e-02  2.7829723746737846e-02  2.7677818543449632e-02  2.7377697962702223e-02  2.6916775473290751e-02  2.6288633848412287e-02  2.5489120933281206e-02  2.4506186349721019e-02  2.3333235758335066e-02  2.1984179235147863e-02  2.0444321128400174e-02  1.8686930759555014e-02  1.6753720908933400e-02  1.4620321085319334e-02  1.2289654358866158e-02  9.7633996080100059e-03  7.0500699144024738e-03  4.1419716153261515e-03  1.0528539084830621e-03  -2.2244994525607129e-03  -5.6793749294654196e-03  -9.3223643357318864e-03  -1.3138592911499693e-02  -1.7128486970552033e-02  -2.1284083726670830e-02  -2.5608082512275029e-02  -3.0087344104397024e-02  -3.4719679010642691e-02  -3.9494122292051792e-02  -4.4398614033205407e-02  -4.9424956801508671e-02  -5.4557954817906602e-02  -5.9776034178637465e-02  -6.5024881531996509e-02  -7.0344620693103335e-02  -7.5657066941223844e-02  -8.0906446078741881e-02  -8.6094809791421617e-02  -9.1154324756668070e-02  -9.6066808131757678e-02  -1.0072954129552625e-01  -1.0513759159330621e-01  -1.0918439520695084e-01  -1.1285844141097273e-01  -1.1605259049337537e-01  -1.1877028563249289e-01  -1.2088091622410108e-01  -1.2239769807599703e-01  -1.2324619449718277e-01  -1.2329219780703693e-01  -1.2270075150032385e-01  -1.2132468204768068e-01  -1.1916230256202567e-01  -1.1632253208851813e-01  -1.1282049683960747e-01  -1.0878150785096236e-01  -1.0427445952952921e-01  -9.9295633697123298e-02  -9.3989285660816616e-02  -8.8396662541259455e-02  -8.2618112178013625e-02  -7.6658130325803625e-02  -7.0547192452384708e-02  -6.4342498717117905e-02  -5.8058427619920069e-02  -5.1707116920466312e-02  -4.5314486931871865e-02  -3.8886168157649358e-02  -3.2442296207654750e-02  -2.5986111184025436e-02  -1.9520460946843666e-02  -1.3057925307337175e-02  -6.5998837036318975e-03  -1.4768449167878469e-04  6.2948411442536548e-03  1.2724283314139544e-02  1.9139354677942567e-02  2.5539478606099033e-02  3.1922963997589059e-02  3.8289596687911175e-02  4.4637600337409218e-02  5.0967357711170010e-02  5.7278064788886550e-02  6.3569416764720263e-02  6.9841301531993069e-02  7.6093374241979123e-02  8.2325572507937470e-02  8.8537851430210451e-02  9.4730099096504858e-02  1.0090227948075495e-01  1.0705438633330529e-01  1.1318642550967008e-01  1.1929836693971053e-01  1.2539028230258153e-01  1.3146218725294004e-01  1.3751410695698990e-01  1.4354609518746803e-01  1.4955818317826744e-01  1.5555039012039529e-01  1.5555006019130593e-01  1.5554925439035377e-01  1.5554798945164855e-01  1.5554645295101391e-01  1.5554491486482083e-01  1.5554364728220785e-01  1.5554283611196501e-01  1.5554250736850758e-01  -1.5160964173737354e-01  -1.8420790390405065e-01  -1.6316124620374745e-01  -1.4892924711554284e-01  -1.3796314576889818e-01  -1.2710306148258382e-01  -1.1636757439416939e-01  -1.0536556592452738e-01  -9.3966401743646857e-02  -8.4807837509596556e-02  -7.4730549614802438e-02  -6.4823494704739734e-02  -5.4272274733791710e-02  -4.3158031195141534e-02  -3.1439049270899744e-02  -1.3958013513917952e-01  -1.2287356731357850e-01  -1.0294223090062712e-01  -8.0316025228750240e-02  -5.7526380484710510e-02  -3.5061631649628243e-02  -1.7637693157384179e-01  -1.2103246389100968e-01  -1.4994913047247847e-02  1.7290815139880708e-03  1.5432071209883113e-02  -1.6486761747066947e-01  2.4772550704207207e-02  -1.9084301134106817e-02  2.9818452385872336e-02  -5.7378354880475244e-03  3.2500958067353876e-02  -1.1045751857362608e-01  -9.2982803866820660e-02  3.3256984067123581e-02  -7.2575021447312787e-02  8.0840784763819441e-03  -4.6521369194880646e-02  3.2806805314223995e-02  2.2951964606883746e-02  -1.5725233165005650e-01  3.1622887703175083e-02  -2.3227301952135661e-02  -1.2253553999790323e-01  3.8359472130897070e-02  2.9906420793568769e-02  -5.3941962834053885e-04  5.5860347755320748e-02  8.2639765779371436e-03  2.7617937211069438e-02  1.5776884888417390e-02  7.3153166347053142e-02  -1.1742806290699374e-01  2.4820177294307532e-02  2.1196866954826966e-02  -1.0640478243008696e-01  2.4997158354768994e-02  2.1231594692316724e-02  -9.1181360223680910e-02  9.3354434884563492e-02  1.0737195469080653e-01  -1.1131983159157749e-02  1.8069013788831096e-02  1.4324696612443245e-02  2.7072743861328775e-02  -7.3803219133380796e-02  2.7664976297570122e-02  -1.5570305314835903e-01  -4.8949170210696030e-02  2.6727880915873834e-02  1.2482402619781359e-01  -2.9251667384801179e-02  1.0407268647555543e-02  2.3948643797421953e-02  -9.7079126651407801e-03  1.6099025277009685e-02  2.0874840133326637e-02  4.7803178694445690e-02  1.7134842841241688e-02  6.6761673223864004e-02  8.5537722833065835e-02  1.2832491275746337e-02  1.1713671929592263e-01  1.6203036454785105e-03  1.4996656085482402e-01  -1.6000880978462201e-01  8.1711929414942999e-03  5.7769136152654547e-03  1.3493914223404718e-01  -1.7138422240467463e-01  -1.5933665679354267e-01  -1.1679598470748789e-01  -6.1106292938960402e-02  2.5803618334900580e-03  2.8399307618351546e-02  1.3527835652647699e-01  -3.7232609142647630e-02  -6.1693240623661494e-02  -8.2878475074691010e-02  -1.0227353989061802e-01  8.3416319984212173e-02  2.7654271186124735e-02  6.4241665217217359e-02  9.7778762825549759e-02  2.5537011535809569e-02  2.3110930691171191e-02  4.6537275991389120e-02  2.6215374299424738e-02  2.8847993742753555e-02  3.0996102653231439e-02  3.0830633462375932e-02  3.2290587912721776e-02  3.3157247513382358e-02  3.3090278387851002e-02  -2.4868449154977827e-02  1.5400350895664173e-02  3.1454829535030739e-02  2.7624366019922682e-02  1.0061615398265890e-03  2.0712579011800816e-02  9.3955061048277434e-03  -5.7556218012521938e-03  1.3512575854863140e-03  -1.2928047982137007e-02  -2.4879982049639610e-02  1.5030609712380988e-01  -3.7063934417568861e-02  -4.8783577732713086e-02  -5.9607270185506503e-02  -7.0015732856272758e-02  -7.9846963261401172e-02  -8.9192534279443014e-02  -1.4607346827619400e-01  -1.0075928361679549e-01  -1.1186851178049546e-01  -1.2277360682111625e-01  -1.3179743930870685e-01  -1.3367811595291379e-01  -9.2117955988684525e-02  -1.1280132541797111e-01  -6.9885798604931826e-02  -4.6264885365524991e-02  -1.4455740595268568e-01  -1.6774015505045375e-01  1.6980799197360802e-03  1.4980998549697108e-01  4.5515495260146531e-03  -1.5977645335930749e-01  1.5055787594058861e-01  1.3778359338704558e-03  1.4645440829950146e-01  -1.5974065471209462e-01  -1.5940004066097760e-01  -1.5893404930202171e-01  -1.5944085084566542e-01  -1.5895749412077192e-01  -1.5979274436598423e-01  -1.5912735005665180e-01  -1.6024658103065675e-01  -1.5941028293866494e-01  -1.6056522407376131e-01  -1.5960998800067952e-01  -1.6048622290225795e-01  -1.5933453491388908e-01  -1.5984886326929804e-01  -1.5855766690605991e-01  -1.5876469990207848e-01  -1.5729416456371531e-01  -1.5730039885894323e-01  -1.5565595599294410e-01  -1.5530219949338642e-01  -1.5333624034232232e-01  -1.5702246791978175e-01  -1.5379667907357417e-01  -1.5108325810991105e-01  -1.5438907496675522e-01  -1.5641609716803087e-01  -1.5132524866351107e-01  -1.4845758064871981e-01  -1.4862537464761430e-01  -1.4538679570590257e-01  -1.4543944968166056e-01  -1.4187814936509530e-01  -1.4184597106016958e-01  -1.3820559637636368e-01  -1.3784108705585885e-01  -1.3347196364792280e-01  -1.3320885187908191e-01  -1.2901311772901139e-01  -1.2832967982573984e-01  -1.2397521909952706e-01  -1.2304891016726743e-01  -1.1861215054933011e-01  -1.1745532416759603e-01  -1.1298682404189971e-01  -1.1155900629349121e-01  -1.0713038910675557e-01  -1.0539571728202773e-01  -1.0106254515911554e-01  -9.9033273620731180e-02  -9.4862289906880878e-02  -9.2492338499632634e-02  -8.8571332133664055e-02  -8.5728104987849760e-02  -1.5274644164482928e-01  -1.5466463172522435e-01  -8.2212921139560219e-02  -7.8941755844553957e-02  -7.5857062956444787e-02  -7.2588848942724660e-02  -6.9615967460153319e-02  -6.5988743637745970e-02  -6.3485153434206826e-02  -5.9527701829750375e-02  -1.4742236584169072e-01  -5.7576839483428413e-02  -5.3196665891911001e-02  -5.1629820672204826e-02  -4.7018673520520374e-02  -4.6048520137000538e-02  -4.1129502476936350e-02  -1.5020249860255097e-01  -1.5236307881011560e-01  -1.6098878698129629e-01  -4.0651207246020643e-02  -3.5452400118449939e-02  -3.5538278156579624e-02  -3.0071653757649790e-02  -3.0691211388033289e-02  -2.5014674296105325e-02  -1.5787810936374128e-01  -2.6125685659386493e-02  -2.0249520415262023e-02  -1.3758408091029437e-01  -2.1826106468589762e-02  -1.5819503124879824e-02  -1.7820173201613679e-02  -1.1714528378439849e-02  -1.4022252717097927e-02  -7.9235890717724369e-03  -1.5791836404976248e-01  -1.2395201688655881e-01  -1.0559507758526753e-02  -4.4446211471638030e-03  -1.4677680653086006e-01  -1.4826439063019603e-01  -1.4498194953458854e-01  -1.0789785936736271e-01  -7.2842151171920045e-03  -1.1163794886857651e-03  -4.3491838941682051e-03  1.8617275054106503e-03  -1.5587398386917254e-03  4.4315108454292288e-03  -3.6061004029350911e-02  1.8391798552184920e-03  -1.9399036743454598e-02  -5.5285891100544111e-02  1.0265383487341681e-03  6.7852917787765647e-03  1.0199158454395856e-02  1.2382244623691970e-02  8.9882689171561815e-03  1.4347879698209597e-02  1.1067938826281723e-02  1.6180914109418302e-02  1.2943315621666094e-02  1.7770496754143758e-02  1.4660968358432700e-02  1.9237750024956091e-02  1.6279811302507771e-02  2.0524013269004531e-02  1.7682683701065627e-02  2.1701188831600032e-02  1.9087519861405413e-02  2.2873297766476033e-02  2.0340964104662972e-02  2.3833259449754961e-02  2.1522760814659862e-02  2.4664888199738329e-02  2.2466527181158782e-02  2.5423141152151763e-02  -7.5413800305577164e-02  -9.0747926334412476e-02  2.3431048952264954e-02  2.6059590077452729e-02  2.4341943025021458e-02  2.6666148186059325e-02  -1.4466460577980453e-01  -1.0934838644944565e-01  2.5149091875816633e-02  2.7161468380897533e-02  -1.2674532519296028e-01  -7.3353631787620485e-02  -1.4244064205843401e-01  -1.4354946511047320e-01  -1.5021217689384087e-01  -1.4437364566694164e-01  -1.5008014530431465e-01  -1.4451512175080064e-01  -1.5068283133561974e-01  -1.4413997399975317e-01  -1.4860617392480124e-01  -1.4270961221262313e-01  -1.4732626325408829e-01  -1.4081539208293994e-01  -1.4389044116543165e-01  -1.3817139989923385e-01  -1.4050767618196258e-01  -1.3525365974738246e-01  -1.3689271513227330e-01  -1.3198664482825198e-01  -1.3314328601917658e-01  -1.2857441623966129e-01  -1.2930350744846922e-01  -1.2502221192237767e-01  -1.2544890947504253e-01  -1.2141764306860169e-01  -1.2158610820484406e-01  -1.1781955255302168e-01  -1.1740032587605073e-01  -1.1391618150933432e-01  -1.1396711522173604e-01  -1.1036068860595517e-01  -1.1021451439229105e-01  -1.0674961766425670e-01  -1.0661177799312031e-01  -1.0317989687752635e-01  -1.0276113984524340e-01  -9.9540992643675871e-02  -1.3268778769131295e-01  -1.0992600270260205e-01  -1.2385673468242051e-01  -9.9044743609887895e-02  -9.5822692393391362e-02  -9.6069428194048831e-02  -9.2535441940640770e-02  -9.2063462288269712e-02  -8.8920811679683673e-02  -8.8258415740964283e-02  -8.5246165150452802e-02  -8.4468277998800745e-02  -8.1509813465641137e-02  -8.8654822343370049e-02  -1.5540681561335395e-01  -1.4947149719009378e-01  -8.0739247016163349e-02  -7.7718348094772571e-02  -7.8441932081220814e-02  -7.4661479683587786e-02  -7.3903367590362409e-02  -7.0901651035821661e-02  -7.0030943762123946e-02  -6.7114139107279189e-02  -1.4183849488169706e-01  -7.1396068842495150e-02  -6.6181770727472750e-02  -6.3340878414560708e-02  -1.3351780967704555e-01  -6.2447012247363515e-02  -5.9510286615471593e-02  -6.0674350137937053e-02  -5.6526024081256218e-02  -5.5571003566317792e-02  -5.2478577398955208e-02  -5.3389297045194697e-02  -4.9347327682949318e-02  -4.8448443366542499e-02  -4.5312972253847152e-02  -4.4402294579700165e-02  -4.1184485925346501e-02  -4.2119242014425282e-02  -3.7996316100630367e-02  -3.7029195548996571e-02  -3.3867819749383479e-02  -3.2936962794978202e-02  -2.9756102486385445e-02  -1.3921911010029053e-01  -1.0998888099033068e-01  -1.2521025870921840e-01  -2.8917249085932989e-02  -2.5675979706150456e-02  -2.6526389848335444e-02  -2.2294222536272335e-02  -2.1447278508140544e-02  -1.8067550143153036e-02  -2.3143274690859948e-02  2.5786817938563186e-02  2.7572329294851095e-02  2.6361903049334046e-02  2.7914492265119672e-02  2.6868829968841337e-02  2.8185017031736620e-02  -9.1426311628039283e-02  -4.5815044741899576e-02  -1.6082017256940084e-01  -1.7187093483106285e-02  -1.3875538971567760e-02  -1.0213541296689989e-01  2.3564305063864355e-02  2.7427061528523373e-02  1.5268262989796036e-02  2.7282536597940905e-02  2.8374593016754053e-02  2.9363057307247965e-02  2.9342160121544645e-02  2.8489378169384277e-02  2.9268307010958228e-02  2.8535928122871968e-02  2.9135180036678945e-02  2.8500461114549167e-02  2.8935719130997403e-02  2.8392783708220893e-02  2.8677171245221903e-02  2.8202182422614592e-02  2.8346701730820920e-02  2.7936456285278435e-02  2.7956349100603364e-02  2.7598729391055218e-02  2.7504447348188910e-02  2.7193077104060766e-02  2.6993290156677775e-02  2.6708524302661511e-02  2.6408239655001869e-02  2.6143574798076420e-02  2.5771917376952259e-02  2.5503406348619074e-02  2.5049669104435342e-02  2.4803996705341506e-02  2.4287483262535499e-02  2.4011195923436507e-02  2.3440492894674377e-02  2.3163907591491343e-02  2.2546368199588985e-02  2.9067510525978710e-02  -3.8998309939637391e-02  -7.3067100662918508e-02  -1.2871523867311947e-02  -9.5736966087002651e-03  -1.0568076365841905e-02  -6.1157220340481901e-03  -7.1542659190594188e-03  -2.5992766675841453e-03  -1.6797375914200596e-03  1.8558136261239439e-03  2.8961401390090362e-03  6.4035279307357394e-03  5.4605573884905292e-03  9.9959740028724656e-03  1.0797698745262291e-02  1.4496571812871785e-02  1.5285132866572822e-