<?xml version="1.0"?>
<VTKFile type="UnstructuredGrid"  version="0.1"  >
<UnstructuredGrid>
<Piece  NumberOfPoints="2886" NumberOfCells="5412">
<Points>
<DataArray  type="Float64"  NumberOfComponents="3"  format="ascii">0 0.1 0  0.98 0.1 0  1 0.1 0  1 0 0  1.5 0 0  3 0 0  3 0.3 0  0 0.3 0  0.01975375321854102 0.1 0  0.03918897458218897 0.1 0  0.05831079002627837 0.1 0  0.07712425666319796 0.1 0  0.0956343475259058 0.1 0  0.1138459546796227 0.1 0  0.1317638870668193 0.1 0  0.1493928840275937 0.1 0  0.1667376092280033 0.1 0  0.1838026357802664 0.1 0  0.2005924801287244 0.1 0  0.2171115811543574 0.1 0  0.2333643037107681 0.1 0  0.2493549444060462 0.1 0  0.2650877293306821 0.1 0  0.2805668058011438 0.1 0  0.2957962848620976 0.1 0  0.3107801766802674 0.1 0  0.3255224447361181 0.1 0  0.3400269848175519 0.1 0  0.3542976327080778 0.1 0  0.3683381609158136 0.1 0  0.3821522744564845 0.1 0  0.3957436316838916 0.1 0  0.4091158196437086 0.1 0  0.4222723742184605 0.1 0  0.4352167733293057 0.1 0  0.4479524348643424 0.1 0  0.4604827295467524 0.1 0  0.4728109659990664 0.1 0  0.4849404035409129 0.1 0  0.4968742471455402 0.1 0  0.508615651843175 0.1 0  0.520167721130924 0.1 0  0.5315335063628542 0.1 0  0.5427160117228604 0.1 0  0.5537181940261912 0.1 0  0.564542961924507 0.1 0  0.575193173270606 0.1 0  0.5856716438765114 0.1 0  0.5959811458006617 0.1 0  0.6061243988680743 0.1 0  0.6161040893285659 0.1 0  0.6259228503970299 0.1 0  0.6355832809287655 0.1 0  0.6450879281079505 0.1 0  0.6544393102991295 0.1 0  0.663639896558931 0.1 0  0.6726921201956305 0.1 0  0.6815983691630338 0.1 0  0.6903610031396646 0.1 0  0.6989823343332418 0.1 0  0.7074646404270378 0.1 0  0.7158101645005117 0.1 0  0.7240211149852543 0.1 0  0.7320996585612525 0.1 0  0.7400479319727645 0.1 0  0.7478680336617921 0.1 0  0.755562036504958 0.1 0  0.7631319665092091 0.1 0  0.7705798279317605 0.1 0  0.777907588066146 0.1 0  0.7851171851013118 0.1 0  0.7922105226004981 0.1 0  0.7991894774550319 0.1 0  0.8060558928136696 0.1 0  0.812811583201334 0.1 0  0.8194583352091183 0.1 0  0.8259979035038147 0.1 0  0.8324320194413813 0.1 0  0.8387623808293405 0.1 0  0.8449906627004957 0.1 0  0.8511185094880469 0.1 0  0.8571475426008311 0.1 0  0.8630793533568246 0.1 0  0.8689155114558531 0.1 0  0.8746575581239063 0.1 0  0.8803070109173519 0.1 0  0.885865363938836 0.1 0  0.8913340851680313 0.1 0  0.8967146206523592 0.1 0  0.9020083930695622 0.1 0  0.9072167995950768 0.1 0  0.9123412183131177 0.1 0  0.9173830029719022 0.1 0  0.9223434865647732 0.1 0  0.9272239785872722 0.1 0  0.9320257720706087 0.1 0  0.9367501330378739 0.1 0  0.9413983102716995 0.1 0  0.9459715351562933 0.1 0  0.9504710127113115 0.1 0  0.9548979346500661 0.1 0  0.9592534708344373 0.1 0  0.9635387708980176 0.1 0  0.9677549682252325 0.1 0  0.971903177251235 0.1 0  0.9759844952956497 0.1 0  0.9840000000000086 0.1 0  0.987999999999974 0.1 0  0.9919999999999393 0.1 0  0.9959999999999913 0.1 0  1 0.09591793123533533 0  1 0.09133596463859224 0  1 0.08619288104391448 0  1 0.08041996484521211 0  1 0.07394008421771697 0  1 0.06666666567302955 0  1 0.05850252932209174 0  1 0.04933859630113544 0  1 0.03905242821848202 0  1 0.02750659386753798 0  1 0.01454683679239736 0  1.015625 0 0  1.03125 0 0  1.046875 0 0  1.0625 0 0  1.078125 0 0  1.09375 0 0  1.109375 0 0  1.125 0 0  1.140625 0 0  1.15625 0 0  1.171875 0 0  1.1875 0 0  1.203125 0 0  1.21875 0 0  1.234375 0 0  1.25 0 0  1.265625 0 0  1.28125 0 0  1.296875 0 0  1.3125 0 0  1.328125 0 0  1.34375 0 0  1.359375 0 0  1.375 0 0  1.390625 0 0  1.40625 0 0  1.421875 0 0  1.4375 0 0  1.453125 0 0  1.46875 0 0  1.484375 0 0  1.515920751924515 0 0  1.531989369316721 0 0  1.54820720925872 0 0  1.564575665560501 0 0  1.581096138674279 0 0  1.597770029901263 0 0  1.614598783332311 0 0  1.631583831055205 0 0  1.64872661129721 0 0  1.666028606716533 0 0  1.683491276608443 0 0  1.701116134125304 0 0  1.718904673324128 0 0  1.736858414799339 0 0  1.754978895814663 0 0  1.773267661782904 0 0  1.791726281103402 0 0  1.810356325314689 0 0  1.8291593848892 0 0  1.848137076690385 0 0  1.867291007717254 0 0  1.886622833871288 0 0  1.90613418642363 0 0  1.925826753299799 0 0  1.945702199101513 0 0  1.96576223584749 0 0  1.986008569283268 0 0  2.006442931928877 0 0  2.02706707547783 0 0  2.047882750887917 0 0  2.06889175187935 0 0  2.090095860038271 0 0  2.111496891648636 0 0  2.133096679109554 0 0  2.154897066851056 0 0  2.176899916687499 0 0  2.199107102752146 0 0  2.22152053937028 0 0  2.244142122958061 0 0  2.266973806444078 0 0  2.290017523268154 0 0  2.313275249499252 0 0  2.336748971745516 0 0  2.360440702338606 0 0  2.384352453384031 0 0  2.408486280477412 0 0  2.432844240041185 0 0  2.457428414757088 0 0  2.482240901796653 0 0  2.507283830121838 0 0  2.532559332080812 0 0  2.558069568787417 0 0  2.583816724966441 0 0  2.60980299606584 0 0  2.636030600971886 0 0  2.662501790984011 0 0  2.689218818279327 0 0  2.716183964547616 0 0  2.743399548861297 0 0  2.77086788244719 0 0  2.798591312896326 0 0  2.826572223178268 0 0  2.854812990138617 0 0  2.883316031690714 0 0  2.912083780657189 0 0  2.941118704633482 0 0  2.970423276998917 0 0  3 0.02999999999994495 0  3 0.05999999999987042 0  3 0.089999999999783 0  3 0.119999999999701 0  3 0.149999999999619 0  3 0.179999999999692 0  3 0.2099999999997737 0  3 0.2399999999998511 0  3 0.2699999999999185 0  2.970138294777171 0.3 0  2.940375666438236 0.3 0  2.910711782853056 0.3 0  2.881146331305122 0.3 0  2.851678975030285 0.3 0  2.822309388626621 0.3 0  2.793037250095074 0.3 0  2.76386223529133 0.3 0  2.734784017903872 0.3 0  2.705802289276642 0.3 0  2.676916713794697 0.3 0  2.648126987654635 0.3 0  2.619432780406184 0.3 0  2.590833779385199 0.3 0  2.562329669847737 0.3 0  2.533920134950189 0.3 0  2.505604855727852 0.3 0  2.477383539822502 0.3 0  2.449255847639465 0.3 0  2.421221492569094 0.3 0  2.393280152486815 0.3 0  2.36543151914496 0.3 0  2.337675285481809 0.3 0  2.310011142385583 0.3 0  2.282438797441587 0.3 0  2.254957931061538 0.3 0  2.227568248063605 0.3 0  2.200269436651085 0.3 0  2.173061204949961 0.3 0  2.145943251515011 0.3 0  2.118915272469994 0.3 0  2.091976978084957 0.3 0  2.065128060700849 0.3 0  2.038368218849433 0.3 0  2.01169717777258 0.3 0  1.985114624111908 0.3 0  1.958620267850966 0.3 0  1.93221382054972 0.3 0  1.905894991850698 0.3 0  1.879663489459713 0.3 0  1.853519019126419 0.3 0  1.827461291053897 0.3 0  1.801490031354372 0.3 0  1.775604937580312 0.3 0  1.74980572560258 0.3 0  1.724092118631866 0.3 0  1.698463829173586 0.3 0  1.672920575782554 0.3 0  1.647462076974085 0.3 0  1.622088043536933 0.3 0  1.5967981978949 0.3 0  1.571592267767068 0.3 0  1.546469970305736 0.3 0  1.521431023814044 0.3 0  1.496475156230927 0.3 0  1.471602093687753 0.3 0  1.446811560490646 0.3 0  1.422103279101731 0.3 0  1.397476971708191 0.3 0  1.37293238939876 0.3 0  1.348469231419202 0.3 0  1.324087248732772 0.3 0  1.299786165921677 0.3 0  1.275565710847046 0.3 0  1.251425617644257 0.3 0  1.227365618676339 0.3 0  1.203385446174014 0.3 0  1.179484853067473 0.3 0  1.155663548773374 0.3 0  1.131921292279077 0.3 0  1.108257802159295 0.3 0  1.084672829009693 0.3 0  1.061166115303374 0.3 0  1.037737392995421 0.3 0  1.01438640299116 0.3 0  0.991112899770314 0.3 0  0.9679166155523955 0.3 0  0.944797284182564 0.3 0  0.921754678526042 0.3 0  0.8987885143602501 0.3 0  0.8758985548820624 0.3 0  0.8530845484099929 0.3 0  0.8303462351786988 0.3 0  0.8076833651172373 0.3 0  0.7850956864865304 0.3 0  0.7625829601354557 0.3 0  0.7401449314598274 0.3 0  0.717781337993959 0.3 0  0.6954919649675473 0.3 0  0.6732765357561226 0.3 0  0.6511348120768439 0.3 0  0.6290665642016573 0.3 0  0.6070715355430467 0.3 0  0.5851494825775325 0.3 0  0.5633001690203812 0.3 0  0.5415233562273221 0.3 0  0.5198187909431873 0.3 0  0.4981862401387795 0.3 0  0.4766254686134248 0.3 0  0.4551362360485234 0.3 0  0.4337182975262159 0.3 0  0.4123714223228037 0.3 0  0.3910953802377493 0.3 0  0.3698899313205595 0.3 0  0.3487548463710963 0.3 0  0.3276898864081783 0.3 0  0.3066948129116018 0.3 0  0.2857694003037476 0.3 0  0.2649134227095047 0.3 0  0.2441266417321288 0.3 0  0.2234088223399122 0.3 0  0.2027597568977288 0.3 0  0.1821792020676698 0.3 0  0.1616669305402443 0.3 0  0.1412227158799362 0.3 0  0.12084633013886 0.3 0  0.1005375673448281 0.3 0  0.08029618164595353 0.3 0  0.06012194778526769 0.3 0  0.04001466495039718 0.3 0  0.01997408913631205 0.3 0  0 0.2800000000000553 0  0 0.2600000000001105 0  0 0.2400000000001658 0  0 0.2200000000002211 0  0 0.2000000000002764 0  0 0.1800000000002244 0  0 0.1600000000001691 0  0 0.140000000000115 0  0 0.1200000000000564 0  1.13346801534201 0.01255848438672509 0  1.003577645172735 0.09351054173913405 0  0.9777559943702486 0.1034978156913738 0  0.9524533750752109 0.1040889939962738 0  0.9296242411226409 0.1041520033606139 0  0.9046110503652111 0.104409422380137 0  0.8777709649694228 0.1053360318797398 0  0.8483859145648608 0.1061007868330701 0  0.8162363822948977 0.1052777104363292 0  0.7893110024210437 0.1060761643971561 0  0.7587949382612539 0.1067265405088633 0  0.7280603867732535 0.1069398153264939 0  0.6947001989413015 0.1075609887579097 0  0.6590363283767549 0.1076715322596598 0  0.6210028614493155 0.1072970410408442 0  1.1953125 0.01353164693413185 0  1.258193991486058 0.01269648635163345 0  1.3201967268638 0.01407907077719561 0  1.383538555392096 0.01434101079053473 0  1.445312500000001 0.01303671693628424 0  1.508925448095738 0.01398525724792267 0  0.9939176689634008 0.1034638089837981 0  1.120967497222226 0.2796788492172345 0  1.572835902117391 0.01424132418857359 0  1.637573277451887 0.01212536916586023 0  1.709730776795181 0.01466855431023635 0  1.005631976950563 0.07074019818158772 0  1.784944696816299 0.01454708406461822 0  0.5805605730631225 0.1101465090472147 0  1.855621181165637 0.01550931272897607 0  0.5366111276616774 0.1096761308243709 0  1.935200147913231 0.01760344159641829 0  1.214922267975168 0.2799787705802257 0  1.31178773425331 0.2792
[...]
<PointData  Scalars="pressure"> 
<DataArray  type="Float64"  Name="pressure"  format="ascii">1.4456521119140561e-01  -1.7249572130958482e-01  -2.1016860398999876e-01  -1.6069542430241990e-01  -4.1847907007198565e-02  0.0000000000000000e+00  0.0000000000000000e+00  1.4457361732776974e-01  1.3863908944410694e-01  1.3280844427592475e-01  1.2707170369924967e-01  1.2142734109376666e-01  1.1587383928747484e-01  1.1040971604535131e-01  1.0503353848843504e-01  9.9743826513152986e-02  9.4539184935803572e-02  8.9418222488157326e-02  8.4379522555449935e-02  7.9421732966451913e-02  7.4543538014960359e-02  6.9743559449171627e-02  6.5020492169735197e-02  6.0373129068848334e-02  5.5800039879309940e-02  5.1300033673210566e-02  4.6871857048385104e-02  4.2514182682858150e-02  3.8225840240692303e-02  3.4005706054971441e-02  2.9852374588894001e-02  2.5764771242194229e-02  2.1741563117507520e-02  1.7781634882804393e-02  1.3883954888224475e-02  1.0047188774751983e-02  6.2701230120880743e-03  2.5516959614953049e-03  -1.1092581266841201e-03  -4.7139837275532821e-03  -8.2634916978318266e-03  -1.1759079858858809e-02  -1.5201794472025675e-02  -1.8592884428625715e-02  -2.1933480305784944e-02  -2.5224187008832850e-02  -2.8467074144323916e-02  -3.1662737058212799e-02  -3.4812293992828452e-02  -3.7917209725123725e-02  -4.0978556844270014e-02  -4.3996632531439109e-02  -4.6973892638775397e-02  -4.9910733932754921e-02  -5.2808375404777716e-02  -5.5668059001501312e-02  -5.8490873851433138e-02  -6.1277953102845895e-02  -6.4030608046909368e-02  -6.6749873603226095e-02  -6.9436796458858058e-02  -7.2092411000301365e-02  -7.4718565785649754e-02  -7.7315594818590655e-02  -7.9884961052764561e-02  -8.2427380680173593e-02  -8.4945159862312505e-02  -8.7438899813769899e-02  -8.9908650613078289e-02  -9.2356514377475413e-02  -9.4784397310792148e-02  -9.7191817363522906e-02  -9.9581234368035315e-02  -1.0195360510953583e-01  -1.0430909612033797e-01  -1.0664967025455621e-01  -1.0897640763576136e-01  -1.1129042242931014e-01  -1.1359398399993333e-01  -1.1588701667585781e-01  -1.1817033098735469e-01  -1.2044439784293123e-01  -1.2271403504148640e-01  -1.2497798039172398e-01  -1.2723710260984289e-01  -1.2949400748852427e-01  -1.3174926696795564e-01  -1.3400429747336673e-01  -1.3626066192182126e-01  -1.3852125156736733e-01  -1.4078685197806193e-01  -1.4305811148146402e-01  -1.4533874466605784e-01  -1.4763049610029932e-01  -1.4993558995765580e-01  -1.5225679096314204e-01  -1.5459683161790749e-01  -1.5695931557108952e-01  -1.5934831842085440e-01  -1.6176875821599690e-01  -1.6422719413638281e-01  -1.6672722383968178e-01  -1.6928633134857832e-01  -1.7192606967454613e-01  -1.7443210314111651e-01  -1.7830013241078255e-01  -1.8579467335675040e-01  -1.9417859061423157e-01  -1.9680110041120569e-01  -1.8901799342576531e-01  -2.0056251021298996e-01  -1.8072278704012920e-01  -1.7435304367364435e-01  -1.6966565529826272e-01  -1.6647591920934834e-01  -1.6407493605889903e-01  -1.6227319661900710e-01  -1.6094961945782019e-01  -1.6015162327934682e-01  -1.5995064822626867e-01  -1.6034745686964508e-01  -1.6113115224115446e-01  -1.6149619516878283e-01  -1.6128186666784039e-01  -1.6060205782401088e-01  -1.5954754352296643e-01  -1.5816374590121376e-01  -1.5643834994744049e-01  -1.5436136413980792e-01  -1.5196450725416505e-01  -1.4926754513813700e-01  -1.4627696017896813e-01  -1.4300816762368609e-01  -1.3947322223146363e-01  -1.3568471612878644e-01  -1.3166132646406764e-01  -1.2741421264391131e-01  -1.2295304915041932e-01  -1.1829293859353886e-01  -1.1344854113836957e-01  -1.0842356550115337e-01  -1.0324911306191924e-01  -9.7932321988116050e-02  -9.2490461098963112e-02  -8.6949109645517539e-02  -8.1326426910321173e-02  -7.5646515215418972e-02  -6.9936645447440868e-02  -6.4217776686783343e-02  -5.8524315783639813e-02  -5.2879562618829638e-02  -4.7312733726674133e-02  -3.6412633603596034e-02  -3.1096005810101444e-02  -2.5910751866347934e-02  -2.0894328381561533e-02  -1.6076298723703062e-02  -1.1459864049403417e-02  -7.0733406302211244e-03  -2.9228938697447309e-03  9.4285307766469630e-04  4.5504099516274791e-03  7.9006902690253213e-03  1.0974567017180544e-02  1.3776635941068044e-02  1.6316646228776314e-02  1.8601052794773757e-02  2.0637201837771409e-02  2.2442620946148302e-02  2.4019993578717393e-02  2.5384469921858749e-02  2.6567871184362841e-02  2.7559760392936481e-02  2.8390334234159317e-02  2.9073341101528739e-02  2.9616782489646606e-02  3.0041694593701852e-02  3.0352509449669680e-02  3.0578409357332300e-02  3.0711014196994273e-02  3.0769877134517197e-02  3.0759508970209782e-02  3.0687359785577611e-02  3.0561999106537882e-02  3.0391880424370965e-02  3.0180542354570229e-02  2.9928665474277957e-02  2.9642526261773855e-02  2.9322620688253920e-02  2.8971059885586459e-02  2.8588635784016443e-02  2.8175458879997065e-02  2.7731541465930765e-02  2.7256515918419807e-02  2.6749033512516597e-02  2.6208916784706108e-02  2.5633814643860504e-02  2.5022255842197437e-02  2.4374749586353783e-02  2.3686781952859459e-02  2.2956962403517633e-02  2.2188041384851132e-02  2.1372407338007389e-02  2.0515060062466301e-02  1.9607924918316848e-02  1.8657325018381268e-02  1.7657131998405330e-02  1.6603876216298930e-02  1.5506294671594615e-02  1.4352814156700795e-02  1.3152282126054229e-02  1.1899969129841821e-02  1.0594592601949100e-02  9.2372177058330351e-03  7.8291087983455680e-03  6.3730142900770724e-03  4.8590327047075329e-03  3.3064490487588116e-03  1.6993931267035758e-03  0.0000000000000000e+00  0.0000000000000000e+00  0.0000000000000000e+00  0.0000000000000000e+00  0.0000000000000000e+00  0.0000000000000000e+00  0.0000000000000000e+00  0.0000000000000000e+00  0.0000000000000000e+00  1.8448534579994470e-03  3.5662579304328373e-03  5.2595464512621331e-03  6.9011766568219581e-03  8.4947335643576222e-03  1.0038908391819520e-02  1.1532734903166688e-02  1.2974545784216944e-02  1.4361618755023425e-02  1.5691775341839288e-02  1.6961159349273253e-02  1.8167338339852807e-02  1.9305380886026346e-02  2.0372379801763162e-02  2.1363687755982515e-02  2.2272802330783544e-02  2.3099311831116531e-02  2.3832401991178528e-02  2.4467480775807293e-02  2.4998464008649350e-02  2.5418602349930944e-02  2.5721282926430809e-02  2.5900886763154329e-02  2.5946759997761273e-02  2.5857097970989174e-02  2.5620383172599421e-02  2.5234091473255262e-02  2.4687057312473015e-02  2.3974011234041227e-02  2.3092047588167436e-02  2.2030498573675145e-02  2.0783483582470896e-02  1.9365394823733052e-02  1.7762226357792635e-02  1.5947387956984464e-02  1.3960386288881842e-02  1.1777583079050583e-02  9.3996282420056830e-03  6.8272248016825942e-03  4.0670708784226132e-03  1.1108004099769082e-03  -2.0291794835825645e-03  -5.3600099923996674e-03  -8.8705098610495064e-03  -1.2569729437655740e-02  -1.6440612688832644e-02  -2.0480393245206265e-02  -2.4676625102521686e-02  -2.9029331110793626e-02  -3.3521878824924550e-02  -3.8149462576591534e-02  -4.2900626648193614e-02  -4.7764458951615872e-02  -5.2735808020301637e-02  -5.7804352131948594e-02  -6.2954749801268403e-02  -6.8140224901450344e-02  -7.3404049345151101e-02  -7.8678286311533688e-02  -8.3912489456341416e-02  -8.9112322961543561e-02  -9.4214536443357838e-02  -9.9204792466688924e-02  -1.0398308621967764e-01  -1.0854816357336801e-01  -1.1279723202931863e-01  -1.1672016544288930e-01  -1.2021393904253637e-01  -1.2328291550471747e-01  -1.2579692105904461e-01  -1.2776879898312379e-01  -1.2911500428891878e-01  -1.2968835767045916e-01  -1.2965166606615783e-01  -1.2882384373237765e-01  -1.2718683392312419e-01  -1.2483631553446789e-01  -1.2176884804393742e-01  -1.1811165820202414e-01  -1.1392937891421005e-01  -1.0921176450538252e-01  -1.0412040810907404e-01  -9.8698692460134282e-02  -9.3061867196859688e-02  -8.7214010014963803e-02  -8.1189961461055546e-02  -7.5055943329909933e-02  -6.8827731373055229e-02  -6.2519787452662720e-02  -5.6161774505955699e-02  -4.9760105520684363e-02  -4.3337974983290825e-02  -3.6898935591120237e-02  -3.0446348858355034e-02  -2.3994551908193384e-02  -1.7545046601490918e-02  -1.1099437545790855e-02  -4.6620519274071116e-03  1.7632135573781682e-03  8.1749568755900490e-03  1.4572481511360369e-02  2.0953893535916642e-02  2.7318925763378729e-02  3.3665609455558555e-02  3.9994342791352014e-02  4.6304235475506557e-02  5.2594931798939572e-02  5.8866304706409363e-02  6.5117961815902486e-02  7.1349830485679777e-02  7.7561850809099719e-02  8.3753893526822901e-02  8.9925912448371462e-02  9.6077893243184831e-02  1.0220983605372973e-01  1.0832170184775970e-01  1.1441356318505612e-01  1.2048542979559156e-01  1.2653732360614472e-01  1.3256929743759971e-01  1.3858137921787325e-01  1.4457358468900924e-01  1.4457323471336764e-01  1.4457238110676929e-01  1.4457104193876522e-01  1.4456941570121246e-01  1.4456778778789145e-01  1.4456644582156364e-01  1.4456558652167317e-01  1.4456523779022151e-01  -1.5280643962228521e-01  -1.8460690521121101e-01  -1.7872322012399888e-01  -1.6308460662729160e-01  -1.5123470562030542e-01  -1.3975423730550887e-01  -1.2856709900468610e-01  -1.1722043430440529e-01  -1.0555889417029365e-01  -9.6244465793995607e-02  -8.6038345410204428e-02  -7.6038334670915864e-02  -6.5415748270888863e-02  -5.4248684482961405e-02  -4.2491683325610666e-02  -1.4110163870932407e-01  -1.2506010362133943e-01  -1.0597197373471585e-01  -8.4082026903794654e-02  -6.1648136856901410e-02  -3.9166708156365436e-02  -1.9286098535155444e-01  -1.2615670519739908e-01  -1.8880264295963661e-02  -1.9232511213236607e-03  1.1967569937488980e-02  -1.6592432085637707e-01  2.1469570721268254e-02  -3.0110481989185187e-02  2.6693309064072766e-02  -1.6745553251893291e-02  2.9613424953460473e-02  -1.1421173476396673e-01  -9.6091261145770546e-02  3.0628260801552468e-02  -7.5615733147398681e-02  -2.9117407445818401e-03  -4.9860065085481291e-02  3.0392452035642944e-02  1.1963857701336383e-02  -1.5837734616276225e-01  2.9415205589042273e-02  -2.6637367016664703e-02  -1.2923880865447784e-01  2.7376061693488985e-02  2.7905341084889776e-02  -3.6463968895846166e-03  4.4879912360963864e-02  5.3043811005575739e-03  2.5860319115393847e-02  1.2963952083401639e-02  6.2174307723479240e-02  -1.2568427897131293e-01  2.3332818874453914e-02  1.8549403574853022e-02  -1.1588543685284768e-01  2.2566902291394846e-02  2.0041274064857836e-02  -1.0139413051200653e-01  8.2376514445598764e-02  9.6394372791694841e-02  -1.4407075399666704e-02  1.7099827934452815e-02  1.3585997038311697e-02  2.4889178634818279e-02  -8.4398151643468658e-02  2.5821575105959095e-02  -1.7059344895395481e-01  -5.9775808973804093e-02  2.5110308827647480e-02  1.1384666283657716e-01  -4.0155458756600482e-02  9.8873851168938300e-03  2.2619586364258093e-02  -2.0648821969770314e-02  5.1362532912183076e-03  1.9772343452124405e-02  3.6830698161463636e-02  1.6269575035042175e-02  5.5786931423034904e-02  7.4561852208617815e-02  1.2210990860718456e-02  1.0616008272465323e-01  1.5443255573663790e-03  1.3898956506995241e-01  -1.6113610134052639e-01  7.7897771547903180e-03  5.4969264540841150e-03  1.2396237072497865e-01  -1.7230602011941493e-01  -1.6045582497135930e-01  -1.2113971133298371e-01  -7.1847348345734530e-02  -8.3735018405278056e-03  1.7431454866979560e-02  1.2430105458229951e-01  -4.0650389328786778e-02  -6.4840585858171429e-02  -8.5894066273805289e-02  -1.0561712226487371e-01  7.2438024365002712e-02  2.5639284728662611e-02  5.3262115510362341e-02  8.6802480936117213e-02  2.4064064701969243e-02  2.1772081596178709e-02  3.5555487198879417e-02  2.4597400739525602e-02  2.6961772489841843e-02  2.0010764404443354e-02  2.8723635646773646e-02  2.9981547437460374e-02  3.0627614295424536e-02  3.0336347841375289e-02  -2.8877775003777664e-02  4.4088293435240672e-03  2.8443142395824600e-02  2.4404229679869612e-02  -9.9950556952137434e-03  1.7328449651866088e-02  5.8488640165052291e-03  -9.5117963402487956e-03  1.2868637511692848e-03  -2.3944623693139537e-02  -3.5917177687488852e-02  1.3932892827893109e-01  -4.8133075411297924e-02  -5.9898561959563140e-02  -7.0783832434961683e-02  -8.1275888756611694e-02  -9.1215379908647282e-02  -1.0069872983202946e-01  -1.4739582618249208e-01  -1.1249769249167939e-01  -1.2391357491750099e-01  -1.3522656257075383e-01  -1.3360956943551971e-01  -1.4668061989710310e-01  -9.5542698366220688e-02  -1.1542374114351765e-01  -7.3865580858419766e-02  -5.0417788174035486e-02  -1.5831834231594200e-01  -1.8949079360635621e-01  1.6212990631621431e-03  1.3883313706327421e-01  4.3443621197457750e-03  -1.6090168534056382e-01  1.3958061350649717e-01  1.3128179022416969e-03  1.3547760765328912e-01  -1.6086198703919327e-01  -1.6052345540416801e-01  -1.6005581172325073e-01  -1.6055864231354475e-01  -1.6007280556662423e-01  -1.6089709917177372e-01  -1.6022915359647794e-01  -1.6133113167829546e-01  -1.6049208003807686e-01  -1.6162655283707314e-01  -1.6066733239973180e-01  -1.6152463982244089e-01  -1.6036788516482492e-01  -1.6086960617068419e-01  -1.5957187913400073e-01  -1.5978587540836953e-01  -1.5830943640574718e-01  -1.5836502356100240e-01  -1.5672544079640705e-01  -1.5652560477716151e-01  -1.5455479071879025e-01  -1.5826917045664024e-01  -1.5485719900396183e-01  -1.5231425982990152e-01  -1.5593757648171702e-01  -1.5803814146300965e-01  -1.5242154400864058e-01  -1.4972604372879295e-01  -1.4976216261079003e-01  -1.4672301099306334e-01  -1.4664966824706632e-01  -1.4331913891805878e-01  -1.4316508582766768e-01  -1.3975731512448944e-01  -1.3930321337952667e-01  -1.3521959114920448e-01  -1.3486866058987887e-01  -1.3093460091357925e-01  -1.3021434430998688e-01  -1.2611879968300371e-01  -1.2519158764222252e-01  -1.2099928808831079e-01  -1.1987661379832998e-01  -1.1562480907948727e-01  -1.1426942071734016e-01  -1.1001964214966807e-01  -1.0839174352872064e-01  -1.0418856609187421e-01  -1.0229745832525147e-01  -9.8203933099607899e-02  -9.5990686840051187e-02  -9.2095829512435903e-02  -8.9440291338437311e-02  -1.5482385640518845e-01  -1.5696071008810766e-01  -8.5878191387074379e-02  -8.2800401523349235e-02  -7.9633620088606388e-02  -7.6548882398390250e-02  -7.3453961593204373e-02  -7.0009361277124912e-02  -6.7353297924311939e-02  -6.3566504983188471e-02  -1.4893471323744009e-01  -6.1450911143527506e-02  -5.7220594932483188e-02  -5.5456787939293997e-02  -5.0997894506632870e-02  -4.9868563715243411e-02  -4.5053147470954236e-02  -1.5301147217101668e-01  -1.5558395547285322e-01  -1.6201701154711304e-01  -4.4427650821772351e-02  -3.9309420440274641e-02  -3.9269744212464881e-02  -3.3858646236839804e-02  -3.4376301464070343e-02  -2.8735001524342087e-02  -1.5980291637615823e-01  -2.9766939658662998e-02  -2.3907557208702655e-02  -1.3935753828827724e-01  -2.5425042344432418e-02  -1.9421814229356561e-02  -2.1378927158980449e-02  -1.5267126950665936e-02  -1.7541503911240364e-02  -1.1430606615121058e-02  -1.5894667655941655e-01  -1.2618235652651708e-01  -1.4037902347980155e-02  -7.9089706506769546e-03  -1.5048067615653413e-01  -1.5250511647888007e-01  -1.4829460966538646e-01  -1.1072833268116689e-01  -1.0719855725098693e-02  -4.5376835141219584e-03  -7.7392722170936427e-03  -1.5159630087858667e-03  -4.9004752274775295e-03  1.0984782080355226e-03  -4.0044383230463075e-02  -1.6103845552779975e-03  -2.3129870564022322e-02  -5.9440868473118462e-02  -2.2652554216122211e-03  3.4990859625854552e-03  6.8715545124889742e-03  9.0987343143747630e-03  5.7506389938112102e-03  1.1111238578233503e-02  7.8800819467640636e-03  1.2995068466332605e-02  9.8067736976988583e-03  1.4639306306784356e-02  1.1576411438114911e-02  1.6162144351191694e-02  1.3247249738844055e-02  1.7505413598755199e-02  1.4702238685253034e-02  1.8740146904164628e-02  1.6158991602456332e-02  1.9970273226343590e-02  1.7464457395728727e-02  2.0988855886712909e-02  1.8698760427117808e-02  2.1879155618328646e-02  1.9695191666849493e-02  2.2696090265188484e-02  -7.9418999597057810e-02  -9.4088628334051225e-02  2.0713774391457065e-02  2.3391580287346381e-02  2.1681084984846971e-02  2.4057814806524296e-02  -1.4585369379955182e-01  -1.1217027325718222e-01  2.2547191657923238e-02  2.4614144791512783e-02  -1.2867758660808171e-01  -7.7001227097658692e-02  -1.4706880041183945e-01  -1.4881968763385664e-01  -1.5523853081213820e-01  -1.5047340920316776e-01  -1.5628267802090814e-01  -1.5156054514036299e-01  -1.5818432561379872e-01  -1.5221497950927934e-01  -1.5735575047644448e-01  -1.5174993011766047e-01  -1.5717185642548004e-01  -1.5068878877096034e-01  -1.5460239335908940e-01  -1.4869303716904353e-01  -1.5179484459367504e-01  -1.4624432181221805e-01  -1.4852466826236885e-01  -1.4328241842466830e-01  -1.4496218603148930e-01  -1.4005048243012613e-01  -1.4120047680487577e-01  -1.3659508191253172e-01  -1.3736125576974728e-01  -1.3303408621096460e-01  -1.3347567804493873e-01  -1.2944557118455721e-01  -1.2923614185952845e-01  -1.2550982767629193e-01  -1.2533436316140242e-01  -1.2174426869199123e-01  -1.2178889876187424e-01  -1.1813702479058900e-01  -1.1817441208113780e-01  -1.1456484632385805e-01  -1.1428394429629417e-01  -1.1090943163495570e-01  -1.4288122625394697e-01  -1.2105586496449038e-01  -1.3502131434617268e-01  -1.1052924288291087e-01  -1.0717206774069771e-01  -1.0728442206681263e-01  -1.0375115638799434e-01  -1.0339247604953869e-01  -1.0013750518308878e-01  -9.9565145395143384e-02  -9.6455883364350931e-02  -9.5751741964119258e-02  -9.2705197920062349e-02  -9.9755615518301574e-02  -1.6185946937828821e-01  -1.6047733835743777e-01  -9.1999566104723957e-02  -8.8901713213679665e-02  -8.9552589977774419e-02  -8.5769143347512317e-02  -8.5075124689881515e-02  -8.2008578728290218e-02  -8.1189727087076793e-02  -7.8216564259401364e-02  -1.5394395933423868e-01  -8.2437095962966139e-02  -7.7327489584700468e-02  -7.4438638105742708e-02  -1.4578134869387149e-01  -7.3580191330895203e-02  -7.0600935946161805e-02  -7.1725623250954537e-02  -6.7575441303953016e-02  -6.6655027073751427e-02  -6.3527295395868391e-02  -6.4399167906591795e-02  -6.0362234950778144e-02  -5.9495783446284124e-02  -5.6331109876624201e-02  -5.5447339394042221e-02  -5.2204427310475629e-02  -5.3110752301923317e-02  -4.8993307080658438e-02  -4.8049680384806698e-02  -4.4868459156672515e-02  -4.3956695410317367e-02  -4.0758730966570920e-02  -1.4606181207033433e-01  -1.2173204334110717e-01  -1.3735532085286722e-01  -3.9935602157563817e-02  -3.6679649597628747e-02  -3.7513432704385917e-02  -3.3284399946561211e-02  -3.2451055881936225e-02  -2.9060004082371287e-02  -3.4116749291289321e-02  2.3245006710029756e-02  2.5086006922661282e-02  2.3882465054264806e-02  2.5491494335877204e-02  2.4455444106812520e-02  2.5826794239101277e-02  -1.0283809569064688e-01  -4.9468274273731024e-02  -1.6190797239356006e-01  -2.8190458302503118e-02  -2.4869153472292654e-02  -1.1375527449858820e-01  2.0504327649227699e-02  2.4684330669378508e-02  1.1946027849929236e-02  2.4938072365452577e-02  2.6082319175101985e-02  2.7057650905150193e-02  2.7098405153028065e-02  2.6264319663320820e-02  2.7087583207801282e-02  2.6379496898385743e-02  2.7018803748845872e-02  2.6413655695318759e-02  2.6883989552840857e-02  2.6376263421245182e-02  2.6692137600985464e-02  2.6256579492215423e-02  2.6430670854191433e-02  2.6062257870974225e-02  2.6109865321051910e-02  2.5795932271158190e-02  2.5728403093457256e-02  2.5460338279386742e-02  2.5288222339972462e-02  2.5046301829932786e-02  2.4774941697446987e-02  2.4552982397306789e-02  2.4210992401183649e-02  2.3983657131396843e-02  2.3561559653298432e-02  2.3354907214238586e-02  2.2872311767669448e-02  2.2633158172538328e-02  2.2098762819170500e-02  2.1859991683014834e-02  2.1278677873618194e-02  2.6578763196096152e-02  -4.9967037408251862e-02  -8.4290002705067729e-02  -2.3873987997896178e-02  -2.0567768648898706e-02  -2.1552742961591858e-02  -1.7102076793335048e-02  -1.8131094701498728e-02  -1.3578879195289812e-02  -1.2667206321369116e-02  -9.1257489182810653e-03  -8.0918719097855182e-03  -4.5793952289898635e-03  -5.5160599391930630e-03  -9.8257542557676184e-04  -1.8602950091494474e-04  3.5166421753239810e-03  4