<?xml version="1.0"?>
<VTKFile type="UnstructuredGrid"  version="0.1"  >
<UnstructuredGrid>
<Piece  NumberOfPoints="2886" NumberOfCells="5412">
<Points>
<DataArray  type="Float64"  NumberOfComponents="3"  format="ascii">0 0.1 0  0.98 0.1 0  1 0.1 0  1 0 0  1.5 0 0  3 0 0  3 0.3 0  0 0.3 0  0.01975375321854102 0.1 0  0.03918897458218897 0.1 0  0.05831079002627837 0.1 0  0.07712425666319796 0.1 0  0.0956343475259058 0.1 0  0.1138459546796227 0.1 0  0.1317638870668193 0.1 0  0.1493928840275937 0.1 0  0.1667376092280033 0.1 0  0.1838026357802664 0.1 0  0.2005924801287244 0.1 0  0.2171115811543574 0.1 0  0.2333643037107681 0.1 0  0.2493549444060462 0.1 0  0.2650877293306821 0.1 0  0.2805668058011438 0.1 0  0.2957962848620976 0.1 0  0.3107801766802674 0.1 0  0.3255224447361181 0.1 0  0.3400269848175519 0.1 0  0.3542976327080778 0.1 0  0.3683381609158136 0.1 0  0.3821522744564845 0.1 0  0.3957436316838916 0.1 0  0.4091158196437086 0.1 0  0.4222723742184605 0.1 0  0.4352167733293057 0.1 0  0.4479524348643424 0.1 0  0.4604827295467524 0.1 0  0.4728109659990664 0.1 0  0.4849404035409129 0.1 0  0.4968742471455402 0.1 0  0.508615651843175 0.1 0  0.520167721130924 0.1 0  0.5315335063628542 0.1 0  0.5427160117228604 0.1 0  0.5537181940261912 0.1 0  0.564542961924507 0.1 0  0.575193173270606 0.1 0  0.5856716438765114 0.1 0  0.5959811458006617 0.1 0  0.6061243988680743 0.1 0  0.6161040893285659 0.1 0  0.6259228503970299 0.1 0  0.6355832809287655 0.1 0  0.6450879281079505 0.1 0  0.6544393102991295 0.1 0  0.663639896558931 0.1 0  0.6726921201956305 0.1 0  0.6815983691630338 0.1 0  0.6903610031396646 0.1 0  0.6989823343332418 0.1 0  0.7074646404270378 0.1 0  0.7158101645005117 0.1 0  0.7240211149852543 0.1 0  0.7320996585612525 0.1 0  0.7400479319727645 0.1 0  0.7478680336617921 0.1 0  0.755562036504958 0.1 0  0.7631319665092091 0.1 0  0.7705798279317605 0.1 0  0.777907588066146 0.1 0  0.7851171851013118 0.1 0  0.7922105226004981 0.1 0  0.7991894774550319 0.1 0  0.8060558928136696 0.1 0  0.812811583201334 0.1 0  0.8194583352091183 0.1 0  0.8259979035038147 0.1 0  0.8324320194413813 0.1 0  0.8387623808293405 0.1 0  0.8449906627004957 0.1 0  0.8511185094880469 0.1 0  0.8571475426008311 0.1 0  0.8630793533568246 0.1 0  0.8689155114558531 0.1 0  0.8746575581239063 0.1 0  0.8803070109173519 0.1 0  0.885865363938836 0.1 0  0.8913340851680313 0.1 0  0.8967146206523592 0.1 0  0.9020083930695622 0.1 0  0.9072167995950768 0.1 0  0.9123412183131177 0.1 0  0.9173830029719022 0.1 0  0.9223434865647732 0.1 0  0.9272239785872722 0.1 0  0.9320257720706087 0.1 0  0.9367501330378739 0.1 0  0.9413983102716995 0.1 0  0.9459715351562933 0.1 0  0.9504710127113115 0.1 0  0.9548979346500661 0.1 0  0.9592534708344373 0.1 0  0.9635387708980176 0.1 0  0.9677549682252325 0.1 0  0.971903177251235 0.1 0  0.9759844952956497 0.1 0  0.9840000000000086 0.1 0  0.987999999999974 0.1 0  0.9919999999999393 0.1 0  0.9959999999999913 0.1 0  1 0.09591793123533533 0  1 0.09133596463859224 0  1 0.08619288104391448 0  1 0.08041996484521211 0  1 0.07394008421771697 0  1 0.06666666567302955 0  1 0.05850252932209174 0  1 0.04933859630113544 0  1 0.03905242821848202 0  1 0.02750659386753798 0  1 0.01454683679239736 0  1.015625 0 0  1.03125 0 0  1.046875 0 0  1.0625 0 0  1.078125 0 0  1.09375 0 0  1.109375 0 0  1.125 0 0  1.140625 0 0  1.15625 0 0  1.171875 0 0  1.1875 0 0  1.203125 0 0  1.21875 0 0  1.234375 0 0  1.25 0 0  1.265625 0 0  1.28125 0 0  1.296875 0 0  1.3125 0 0  1.328125 0 0  1.34375 0 0  1.359375 0 0  1.375 0 0  1.390625 0 0  1.40625 0 0  1.421875 0 0  1.4375 0 0  1.453125 0 0  1.46875 0 0  1.484375 0 0  1.515920751924515 0 0  1.531989369316721 0 0  1.54820720925872 0 0  1.564575665560501 0 0  1.581096138674279 0 0  1.597770029901263 0 0  1.614598783332311 0 0  1.631583831055205 0 0  1.64872661129721 0 0  1.666028606716533 0 0  1.683491276608443 0 0  1.701116134125304 0 0  1.718904673324128 0 0  1.736858414799339 0 0  1.754978895814663 0 0  1.773267661782904 0 0  1.791726281103402 0 0  1.810356325314689 0 0  1.8291593848892 0 0  1.848137076690385 0 0  1.867291007717254 0 0  1.886622833871288 0 0  1.90613418642363 0 0  1.925826753299799 0 0  1.945702199101513 0 0  1.96576223584749 0 0  1.986008569283268 0 0  2.006442931928877 0 0  2.02706707547783 0 0  2.047882750887917 0 0  2.06889175187935 0 0  2.090095860038271 0 0  2.111496891648636 0 0  2.133096679109554 0 0  2.154897066851056 0 0  2.176899916687499 0 0  2.199107102752146 0 0  2.22152053937028 0 0  2.244142122958061 0 0  2.266973806444078 0 0  2.290017523268154 0 0  2.313275249499252 0 0  2.336748971745516 0 0  2.360440702338606 0 0  2.384352453384031 0 0  2.408486280477412 0 0  2.432844240041185 0 0  2.457428414757088 0 0  2.482240901796653 0 0  2.507283830121838 0 0  2.532559332080812 0 0  2.558069568787417 0 0  2.583816724966441 0 0  2.60980299606584 0 0  2.636030600971886 0 0  2.662501790984011 0 0  2.689218818279327 0 0  2.716183964547616 0 0  2.743399548861297 0 0  2.77086788244719 0 0  2.798591312896326 0 0  2.826572223178268 0 0  2.854812990138617 0 0  2.883316031690714 0 0  2.912083780657189 0 0  2.941118704633482 0 0  2.970423276998917 0 0  3 0.02999999999994495 0  3 0.05999999999987042 0  3 0.089999999999783 0  3 0.119999999999701 0  3 0.149999999999619 0  3 0.179999999999692 0  3 0.2099999999997737 0  3 0.2399999999998511 0  3 0.2699999999999185 0  2.970138294777171 0.3 0  2.940375666438236 0.3 0  2.910711782853056 0.3 0  2.881146331305122 0.3 0  2.851678975030285 0.3 0  2.822309388626621 0.3 0  2.793037250095074 0.3 0  2.76386223529133 0.3 0  2.734784017903872 0.3 0  2.705802289276642 0.3 0  2.676916713794697 0.3 0  2.648126987654635 0.3 0  2.619432780406184 0.3 0  2.590833779385199 0.3 0  2.562329669847737 0.3 0  2.533920134950189 0.3 0  2.505604855727852 0.3 0  2.477383539822502 0.3 0  2.449255847639465 0.3 0  2.421221492569094 0.3 0  2.393280152486815 0.3 0  2.36543151914496 0.3 0  2.337675285481809 0.3 0  2.310011142385583 0.3 0  2.282438797441587 0.3 0  2.254957931061538 0.3 0  2.227568248063605 0.3 0  2.200269436651085 0.3 0  2.173061204949961 0.3 0  2.145943251515011 0.3 0  2.118915272469994 0.3 0  2.091976978084957 0.3 0  2.065128060700849 0.3 0  2.038368218849433 0.3 0  2.01169717777258 0.3 0  1.985114624111908 0.3 0  1.958620267850966 0.3 0  1.93221382054972 0.3 0  1.905894991850698 0.3 0  1.879663489459713 0.3 0  1.853519019126419 0.3 0  1.827461291053897 0.3 0  1.801490031354372 0.3 0  1.775604937580312 0.3 0  1.74980572560258 0.3 0  1.724092118631866 0.3 0  1.698463829173586 0.3 0  1.672920575782554 0.3 0  1.647462076974085 0.3 0  1.622088043536933 0.3 0  1.5967981978949 0.3 0  1.571592267767068 0.3 0  1.546469970305736 0.3 0  1.521431023814044 0.3 0  1.496475156230927 0.3 0  1.471602093687753 0.3 0  1.446811560490646 0.3 0  1.422103279101731 0.3 0  1.397476971708191 0.3 0  1.37293238939876 0.3 0  1.348469231419202 0.3 0  1.324087248732772 0.3 0  1.299786165921677 0.3 0  1.275565710847046 0.3 0  1.251425617644257 0.3 0  1.227365618676339 0.3 0  1.203385446174014 0.3 0  1.179484853067473 0.3 0  1.155663548773374 0.3 0  1.131921292279077 0.3 0  1.108257802159295 0.3 0  1.084672829009693 0.3 0  1.061166115303374 0.3 0  1.037737392995421 0.3 0  1.01438640299116 0.3 0  0.991112899770314 0.3 0  0.9679166155523955 0.3 0  0.944797284182564 0.3 0  0.921754678526042 0.3 0  0.8987885143602501 0.3 0  0.8758985548820624 0.3 0  0.8530845484099929 0.3 0  0.8303462351786988 0.3 0  0.8076833651172373 0.3 0  0.7850956864865304 0.3 0  0.7625829601354557 0.3 0  0.7401449314598274 0.3 0  0.717781337993959 0.3 0  0.6954919649675473 0.3 0  0.6732765357561226 0.3 0  0.6511348120768439 0.3 0  0.6290665642016573 0.3 0  0.6070715355430467 0.3 0  0.5851494825775325 0.3 0  0.5633001690203812 0.3 0  0.5415233562273221 0.3 0  0.5198187909431873 0.3 0  0.4981862401387795 0.3 0  0.4766254686134248 0.3 0  0.4551362360485234 0.3 0  0.4337182975262159 0.3 0  0.4123714223228037 0.3 0  0.3910953802377493 0.3 0  0.3698899313205595 0.3 0  0.3487548463710963 0.3 0  0.3276898864081783 0.3 0  0.3066948129116018 0.3 0  0.2857694003037476 0.3 0  0.2649134227095047 0.3 0  0.2441266417321288 0.3 0  0.2234088223399122 0.3 0  0.2027597568977288 0.3 0  0.1821792020676698 0.3 0  0.1616669305402443 0.3 0  0.1412227158799362 0.3 0  0.12084633013886 0.3 0  0.1005375673448281 0.3 0  0.08029618164595353 0.3 0  0.06012194778526769 0.3 0  0.04001466495039718 0.3 0  0.01997408913631205 0.3 0  0 0.2800000000000553 0  0 0.2600000000001105 0  0 0.2400000000001658 0  0 0.2200000000002211 0  0 0.2000000000002764 0  0 0.1800000000002244 0  0 0.1600000000001691 0  0 0.140000000000115 0  0 0.1200000000000564 0  1.13346801534201 0.01255848438672509 0  1.003577645172735 0.09351054173913405 0  0.9777559943702486 0.1034978156913738 0  0.9524533750752109 0.1040889939962738 0  0.9296242411226409 0.1041520033606139 0  0.9046110503652111 0.104409422380137 0  0.8777709649694228 0.1053360318797398 0  0.8483859145648608 0.1061007868330701 0  0.8162363822948977 0.1052777104363292 0  0.7893110024210437 0.1060761643971561 0  0.7587949382612539 0.1067265405088633 0  0.7280603867732535 0.1069398153264939 0  0.6947001989413015 0.1075609887579097 0  0.6590363283767549 0.1076715322596598 0  0.6210028614493155 0.1072970410408442 0  1.1953125 0.01353164693413185 0  1.258193991486058 0.01269648635163345 0  1.3201967268638 0.01407907077719561 0  1.383538555392096 0.01434101079053473 0  1.445312500000001 0.01303671693628424 0  1.508925448095738 0.01398525724792267 0  0.9939176689634008 0.1034638089837981 0  1.120967497222226 0.2796788492172345 0  1.572835902117391 0.01424132418857359 0  1.637573277451887 0.01212536916586023 0  1.709730776795181 0.01466855431023635 0  1.005631976950563 0.07074019818158772 0  1.784944696816299 0.01454708406461822 0  0.5805605730631225 0.1101465090472147 0  1.855621181165637 0.01550931272897607 0  0.5366111276616774 0.1096761308243709 0  1.935200147913231 0.01760344159641829 0  1.214922267975168 0.2799787705802257 0  1.31178773425331 0.2792
[...]
<PointData  Scalars="pressure"> 
<DataArray  type="Float64"  Name="pressure"  format="ascii">-3.0019139416883185e+00  -3.5429208331010140e+00  -3.7430273277520953e+00  -3.3325945335746248e+00  -2.4814907885122914e+00  0.0000000000000000e+00  0.0000000000000000e+00  -3.0019121513935181e+00  -3.0078400672959247e+00  -3.0136706508281623e+00  -3.0194072348572516e+00  -3.0250513370425436e+00  -3.0306044545670638e+00  -3.0360680575282726e+00  -3.0414435892982565e+00  -3.0467324829273257e+00  -3.0519361387713708e+00  -3.0570559325878137e+00  -3.0620932305676436e+00  -3.0670493707499795e+00  -3.0719256617534518e+00  -3.0767234081966977e+00  -3.0814438884719166e+00  -3.0860883412862155e+00  -3.0906580336977867e+00  -3.0951541732453491e+00  -3.0995779618285262e+00  -3.1039306048635411e+00  -3.1082132773629656e+00  -3.1124271096080589e+00  -3.1165732763507790e+00  -3.1206528895659127e+00  -3.1246670907921814e+00  -3.1286170309218067e+00  -3.1325037311322554e+00  -3.1363283306651750e+00  -3.1400919443240625e+00  -3.1437956402886651e+00  -3.1474405014870372e+00  -3.1510276277875895e+00  -3.1545581626028141e+00  -3.1580331859325455e+00  -3.1614537095202704e+00  -3.1648210542741411e+00  -3.1681365654237701e+00  -3.1714005693617673e+00  -3.1746149053796482e+00  -3.1777813342282677e+00  -3.1808993879724277e+00  -3.1839723663078230e+00  -3.1870014495047676e+00  -3.1899854038370630e+00  -3.1929288901391635e+00  -3.1958321583722817e+00  -3.1986966896332154e+00  -3.2015238467306926e+00  -3.2043163559948695e+00  -3.2070753548892990e+00  -3.2098025538369193e+00  -3.2125010591446403e+00  -3.2151723974845305e+00  -3.2178182550110890e+00  -3.2204421866859581e+00  -3.2230456493173620e+00  -3.2256317816154851e+00  -3.2282058248372039e+00  -3.2307620713832952e+00  -3.2333179577305580e+00  -3.2358661758584013e+00  -3.2384118990459601e+00  -3.2409616726031416e+00  -3.2435182228344330e+00  -3.2460811547721868e+00  -3.2486677228735874e+00  -3.2512709693250401e+00  -3.2538990856302545e+00  -3.2565562089621625e+00  -3.2592503950124918e+00  -3.2619964073435694e+00  -3.2647801978461861e+00  -3.2676420174640568e+00  -3.2705338235904113e+00  -3.2735217175731264e+00  -3.2765915965676555e+00  -3.2797448967864811e+00  -3.2830058050565190e+00  -3.2863763892097602e+00  -3.2898728806920419e+00  -3.2934944074823229e+00  -3.2972839359095905e+00  -3.3012405121274075e+00  -3.3053741027620660e+00  -3.3097183966721277e+00  -3.3142900402239004e+00  -3.3191171419721628e+00  -3.3242223419041834e+00  -3.3296354126726602e+00  -3.3353895666607452e+00  -3.3415181117459887e+00  -3.3480587273057494e+00  -3.3550535188331922e+00  -3.3624743348488240e+00  -3.3702659008633624e+00  -3.3780055797188808e+00  -3.3899643090133602e+00  -3.3810277323561544e+00  -3.4627010060056844e+00  -3.4940936378655705e+00  -3.5724664272183517e+00  -3.6183588490197254e+00  -3.5465435677879582e+00  -3.5141432104469170e+00  -3.4787171041081559e+00  -3.4495252512569881e+00  -3.4237561060303281e+00  -3.4007875460712214e+00  -3.3809544467098198e+00  -3.3636521156894830e+00  -3.3495500951766686e+00  -3.3390501957361680e+00  -3.3329836414795024e+00  -3.3317391009577193e+00  -3.3235680206834863e+00  -3.3089238971093091e+00  -3.2889999507336953e+00  -3.2651396774493331e+00  -3.2392470608007478e+00  -3.2125673020384524e+00  -3.1852843893791540e+00  -3.1577972907541128e+00  -3.1303659985972407e+00  -3.1028170584199262e+00  -3.0749010691708918e+00  -3.0463401921659137e+00  -3.0168639783866156e+00  -2.9864682016132043e+00  -2.9550564959014922e+00  -2.9228166417575125e+00  -2.8898738536769910e+00  -2.8566120389406193e+00  -2.8240496406042808e+00  -2.7909892830031993e+00  -2.7595778064556846e+00  -2.7286331625949298e+00  -2.6988602892470079e+00  -2.6697794088317548e+00  -2.6426565295636144e+00  -2.6153294966005447e+00  -2.5888822084771772e+00  -2.5625756198545746e+00  -2.5361225869351411e+00  -2.5091952542580538e+00  -2.4522630653758819e+00  -2.4216485727110904e+00  -2.3893475128965713e+00  -2.3555339768348786e+00  -2.3203535253843115e+00  -2.2831542751247897e+00  -2.2450209998144461e+00  -2.2070704859899646e+00  -2.1684181706273025e+00  -2.1288669359416259e+00  -2.0905052643692459e+00  -2.0529860402337894e+00  -2.0163943495334120e+00  -1.9811552409224802e+00  -1.9474229432167058e+00  -1.9149845581333549e+00  -1.8839954231323901e+00  -1.8546698281188791e+00  -1.8253363998547543e+00  -1.7977356716851927e+00  -1.7699545281475331e+00  -1.7422461343536235e+00  -1.7145399054561199e+00  -1.6862510980127348e+00  -1.6573129746811257e+00  -1.6267942601789152e+00  -1.5963771366563102e+00  -1.5646269895737912e+00  -1.5320781198208342e+00  -1.4991288752563319e+00  -1.4649830523272684e+00  -1.4302360121542694e+00  -1.3952212737803840e+00  -1.3602483016547262e+00  -1.3249756072451109e+00  -1.2896685450076188e+00  -1.2541244550157420e+00  -1.2184557583748206e+00  -1.1825236898094988e+00  -1.1462028576287895e+00  -1.1094911700559433e+00  -1.0724232325391463e+00  -1.0348690198756278e+00  -9.9716136753593065e-01  -9.5908265735558806e-01  -9.2037028936293208e-01  -8.8162496231271215e-01  -8.4323726455374348e-01  -8.0295661978593746e-01  -7.6408800274286692e-01  -7.2340080324014877e-01  -6.8422858252462604e-01  -6.4313143170038456e-01  -6.0273671277014662e-01  -5.6305935773759264e-01  -5.2137732513441148e-01  -4.8121873560923190e-01  -4.3909872109610248e-01  -3.9714142827732013e-01  -3.5495267116553963e-01  -3.1334245400782434e-01  -2.6919112246264060e-01  -2.2550389038582389e-01  -1.8100727497975347e-01  -1.3559118592937597e-01  -9.1880298644139796e-02  -4.5853974243968483e-02  0.0000000000000000e+00  0.0000000000000000e+00  0.0000000000000000e+00  0.0000000000000000e+00  0.0000000000000000e+00  0.0000000000000000e+00  0.0000000000000000e+00  0.0000000000000000e+00  0.0000000000000000e+00  -4.5510885725036865e-02  -9.0569655640551736e-02  -1.3734719710006138e-01  -1.8263054532143425e-01  -2.2786983654822576e-01  -2.7310891038419943e-01  -3.1858006580084552e-01  -3.6416913184977900e-01  -4.0977055266040358e-01  -4.5541776382076049e-01  -5.0095849848083918e-01  -5.4639721451740497e-01  -5.9155307633485266e-01  -6.3640130064999345e-01  -6.8092434631641796e-01  -7.2528182947797637e-01  -7.6936247484710363e-01  -8.1311698875296967e-01  -8.5670906924307011e-01  -9.0021938049306049e-01  -9.4369137865609498e-01  -9.8711559339974730e-01  -1.0305916729275377e+00  -1.0741105000369588e+00  -1.1178853951088052e+00  -1.1616932151801267e+00  -1.2058910909298388e+00  -1.2497971522601410e+00  -1.2936736196519047e+00  -1.3374972366391245e+00  -1.3810656336696789e+00  -1.4248358537006458e+00  -1.4690972551061010e+00  -1.5124119909499618e+00  -1.5575446853365038e+00  -1.6030619279645184e+00  -1.6506683526510126e+00  -1.6989546942932932e+00  -1.7485096525534329e+00  -1.7998438448174097e+00  -1.8495564672357048e+00  -1.9001371672627723e+00  -1.9491741116110917e+00  -1.9963628420750137e+00  -2.0415258152474842e+00  -2.0848132214908741e+00  -2.1261554644974439e+00  -2.1663924682777846e+00  -2.2075455919854607e+00  -2.2484512158731631e+00  -2.2899128842394876e+00  -2.3321749617375631e+00  -2.3751508311455556e+00  -2.4191246118209548e+00  -2.4639987110874775e+00  -2.5095392064170747e+00  -2.5557937723505413e+00  -2.6036300659410445e+00  -2.6501020738055088e+00  -2.6959737448150380e+00  -2.7413554414998087e+00  -2.7853595967570506e+00  -2.8285388945129566e+00  -2.8703244919825557e+00  -2.9112480062571868e+00  -2.9513272062079792e+00  -2.9904455211249275e+00  -3.0281694006264508e+00  -3.0643932050357510e+00  -3.0981104168050821e+00  -3.1292965753445059e+00  -3.1571195608097034e+00  -3.1813075510860598e+00  -3.2025478953048556e+00  -3.2194940286024409e+00  -3.2325375549455533e+00  -3.2421727626225776e+00  -3.2483023054973525e+00  -3.2516278722787657e+00  -3.2523366905744586e+00  -3.2508498930970902e+00  -3.2480307186096131e+00  -3.2440784583358231e+00  -3.2393761671261827e+00  -3.2340460715911501e+00  -3.2282931130173003e+00  -3.2222824746174759e+00  -3.2160661009601061e+00  -3.2097218470033084e+00  -3.2032985368086315e+00  -3.1968233288317935e+00  -3.1903243488359276e+00  -3.1838098456543498e+00  -3.1772923621984863e+00  -3.1707810714402722e+00  -3.1642788361528527e+00  -3.1577892986497269e+00  -3.1513157010330159e+00  -3.1448596806986049e+00  -3.1384219741150838e+00  -3.1320033823903133e+00  -3.1256045628763292e+00  -3.1192256797441216e+00  -3.1128672324540019e+00  -3.1065291678733149e+00  -3.1002116420399544e+00  -3.0939146982922332e+00  -3.0876383284444828e+00  -3.0813825595824782e+00  -3.0751473535727705e+00  -3.0689326703514723e+00  -3.0627384826967194e+00  -3.0565647411451451e+00  -3.0504113928610610e+00  -3.0442783845463657e+00  -3.0381656686721938e+00  -3.0320731852991414e+00  -3.0260008735492967e+00  -3.0199486757827221e+00  -3.0139165331524773e+00  -3.0079043799766199e+00  -3.0019121586347040e+00  -3.0019122329587211e+00  -3.0019124142998050e+00  -3.0019126995067866e+00  -3.0019130462806149e+00  -3.0019133934041831e+00  -3.0019136791949710e+00  -3.0019138617504355e+00  -3.0019139357635920e+00  -3.1700032798935389e+00  -3.5431522963022366e+00  -3.4224182274317556e+00  -3.3516313685604811e+00  -3.3217520148328603e+00  -3.2992696042208949e+00  -3.2815333139762815e+00  -3.2663427007859682e+00  -3.2526167394899934e+00  -3.2424636165010057e+00  -3.2318470569234785e+00  -3.2217384334001240e+00  -3.2111576360565062e+00  -3.2001073828385902e+00  -3.1884891896932257e+00  -3.0603838404041581e+00  -2.9384821535501544e+00  -2.8079664390708898e+00  -2.6829420685964331e+00  -2.5754242894618016e+00  -2.4652457518177258e+00  -3.5526023006588621e+00  -3.1127554076981854e+00  -2.3385165112998392e+00  -2.1941388730261897e+00  -2.0359987258836392e+00  -3.4167445879784184e+00  -1.8957660792024043e+00  -3.1762361901383365e+00  -1.7866897336392813e+00  -3.1629827061953204e+00  -1.6725025555381257e+00  -2.9710490621754975e+00  -2.8065866510051789e+00  -1.5430322543500925e+00  -2.6267220483055156e+00  -3.1492318478346388e+00  -2.3963265996805090e+00  -1.4146258417926902e+00  -3.1344161904064634e+00  -3.2513632475916041e+00  -1.2718351516903452e+00  -2.1863740739172441e+00  -3.1948424562464544e+00  -3.1190438785187724e+00  -1.1279238075252851e+00  -1.9252770755478057e+00  -3.1015671438203536e+00  -1.7767693755467975e+00  -9.7637210738076341e-01  -1.6234417168971593e+00  -3.0842880188237984e+00  -3.2386828769585709e+00  -8.2548031593285820e-01  -1.4889004466162701e+00  -3.2524923161317676e+00  -1.3557885558979688e+00  -6.6399583153618280e-01  -3.2464536446612620e+00  -3.0640954191016854e+00  -3.0500812123684797e+00  -2.0629623134244586e+00  -5.4208007795793767e-01  -4.1345033619993793e-01  -1.2259745604737531e+00  -3.2315176517476081e+00  -1.0492996933882721e+00  -3.3754450293169929e+00  -3.2069937809603064e+00  -9.2161975131056717e-01  -3.0326313949507431e+00  -3.1871211415149490e+00  -2.9098606787415415e-01  -7.4822149193300158e-01  -3.1674143288238628e+00  -3.1414748758596938e+00  -6.1429710527551618e-01  -3.1096981154725989e+00  -4.7845412597322795e-01  -3.0907203943784629e+00  -3.0719341214837668e+00  -3.4173644342689252e-01  -3.0403276451107475e+00  -4.2037085953164938e-02  -3.0074934887882381e+00  -3.3569152256425685e+00  -2.0904319531319820e-01  -1.5599822099499769e-01  -3.0225237823440385e+00  -3.4713376446004300e+00  -3.3010797091029289e+00  -3.0461138743468017e+00  -3.2191537511349231e+00  -3.1550514095056426e+00  -3.1291381197750479e+00  -3.0221777282037734e+00  -2.3140679076488158e+00  -2.5302459565793356e+00  -2.7177140777504212e+00  -2.8898546158416614e+00  -3.0740300103317399e+00  -1.1396708130085511e+00  -3.0931934113009825e+00  -3.0596891557662134e+00  -8.3507863889341027e-01  -7.4490492795960128e-01  -3.1108789898240157e+00  -8.9713124216123263e-01  -1.0537765882439334e+00  -3.1263923298786809e+00  -1.2004892530825786e+00  -1.3433866972564061e+00  -1.4865398289112934e+00  -1.6081519519691148e+00  -2.4059382169610113e+00  -3.1419439263251969e+00  -1.7306996840470887e+00  -1.8398836941137224e+00  -3.1562760947547672e+00  -1.9617734885590479e+00  -2.1108242096163754e+00  -2.2639785742757228e+00  -3.5567042064602851e-02  -3.1701261286771985e+00  -3.1819859224342317e+00  -3.0071516578475106e+00  -3.1940625736924431e+00  -3.2056932869805297e+00  -3.2164914447676693e+00  -3.2270053003150769e+00  -3.2371831064209502e+00  -3.2472445474139935e+00  -3.1144744621446452e+00  -3.2606161538880456e+00  -3.2750471221116451e+00  -3.2916903995549678e+00  -3.0018443071471501e+00  -3.3122121157296487e+00  -2.7450249602025369e+00  -2.8704903528531909e+00  -2.6324602174875826e+00  -2.5224936677749565e+00  -3.3386457053701415e+00  -3.4436711993946907e+00  -4.2243876474152363e-02  -3.0076520103718205e+00  -1.1350797260161817e-01  -3.3282436124189791e+00  -3.0068986564147151e+00  -3.6061478561429813e-02  -3.0110081946920064e+00  -3.3174799222035021e+00  -3.3138290693667609e+00  -3.2972239748324865e+00  -3.3119212740076494e+00  -3.2941962631428559e+00  -3.3107492550740942e+00  -3.2881551492444507e+00  -3.3079557839443527e+00  -3.2817998853462398e+00  -3.3027031823241071e+00  -3.2747188484598109e+00  -3.2939153129503977e+00  -3.2628764560643515e+00  -3.2806649417748242e+00  -3.2483625697440477e+00  -3.2655285687232372e+00  -3.2325592779190249e+00  -3.2512442985655619e+00  -3.2177556340734670e+00  -3.2361587501774127e+00  -3.2010009312692604e+00  -3.2763977069972641e+00  -3.1843245081194036e+00  -3.1691419932526546e+00  -3.2549607834925438e+00  -3.2976006311206447e+00  -3.1554521141575016e+00  -3.1403654509243446e+00  -3.1283983268733051e+00  -3.1140295332605641e+00  -3.1032959590706977e+00  -3.0892295101677800e+00  -3.0792957982673612e+00  -3.0644606614395902e+00  -3.0542688695625517e+00  -3.0361752613566817e+00  -3.0259300085735807e+00  -3.0063915712613642e+00  -2.9938217547775592e+00  -2.9722491147811345e+00  -2.9565704505084658e+00  -2.9336207133103320e+00  -2.9149284866390857e+00  -2.8916383497632574e+00  -2.8700849379020541e+00  -2.8474053477086687e+00  -2.8239735149525167e+00  -2.8031335327822671e+00  -2.7788822322954485e+00  -2.7601254086516200e+00  -2.7365635337784022e+00  -2.7196705643415795e+00  -2.6954418542334002e+00  -3.2669083110529966e+00  -3.2994365204849077e+00  -2.6822295173448878e+00  -2.6594218850361444e+00  -2.6466505596132577e+00  -2.6276877229233215e+00  -2.6137347122090624e+00  -2.5963223929466417e+00  -2.5814264829598756e+00  -2.5657103077254213e+00  -3.1517112624258639e+00  -2.5496931391052047e+00  -2.5344993376259124e+00  -2.5137948098165217e+00  -2.5012453019780145e+00  -2.4809187415361533e+00  -2.4665260865113776e+00  -3.2684222157430973e+00  -3.2974681094993863e+00  -3.3156021348885303e+00  -2.4443497311980948e+00  -2.4291034742948017e+00  -2.4061065562762400e+00  -2.3895662262330117e+00  -2.3667950486429969e+00  -2.3486204945847651e+00  -3.3306337714062617e+00  -2.3266907894925200e+00  -2.3065487405942315e+00  -3.0750526459080421e+00  -2.2862136823876971e+00  -2.2641472000720992e+00  -2.2461805322123647e+00  -2.2218566342988422e+00  -2.2064842430603213e+00  -2.1798466669181531e+00  -3.2324162029310766e+00  -2.9835690863314004e+00  -2.1674932326662621e+00  -2.1385865227121648e+00  -3.2635560154805852e+00  -3.2840724977402465e+00  -3.2378867169379597e+00  -2.8658812565024920e+00  -2.1291067998820705e+00  -2.0971861591679768e+00  -2.0917862688680202e+00  -2.0570909823644175e+00  -2.0546547648921063e+00  -2.0191980474084414e+00  -2.4500075148126994e+00  -2.1047387601263607e+00  -2.3281748082216573e+00  -2.5505175752635818e+00  -2.0177344150304712e+00  -1.9818656506737555e+00  -1.9829159358826929e+00  -1.9457959713010984e+00  -1.9445057611331458e+00  -1.9096145895631287e+00  -1.9067686045321823e+00  -1.8729809249984530e+00  -1.8686502074372706e+00  -1.8362197641114026e+00  -1.8300653501570596e+00  -1.7995779012981077e+00  -1.7909635906603214e+00  -1.7628942299262826e+00  -1.7518405017082970e+00  -1.7257987931836984e+00  -1.7122384784944755e+00  -1.6883200141282753e+00  -1.6727822590436898e+00  -1.6504462945557115e+00  -1.6334320377059437e+00  -1.6124854779909781e+00  -1.5943318262418531e+00  -1.5740331098655849e+00  -2.6403092688397902e+00  -2.7439579423403995e+00  -1.5553358518630607e+00  -1.5355492676398299e+00  -1.5165113181243159e+00  -1.4964779205523500e+00  -3.0932933391129698e+00  -2.8456012924950271e+00  -1.4773216038733286e+00  -1.4573102699386971e+00  -2.9762773851244111e+00  -2.6357098847277971e+00  -3.2553708852500236e+00  -3.2720957571575990e+00  -3.3015472732565705e+00  -3.2842202234441267e+00  -3.3060158494352847e+00  -3.2911226443490467e+00  -3.3104783904815238e+00  -3.2950930251102730e+00  -3.3079305038222211e+00  -3.2963622480455497e+00  -3.3086587676858907e+00  -3.2969627051244741e+00  -3.3062597812314207e+00  -3.2962243898498205e+00  -3.3040342951642687e+00  -3.2948244576555648e+00  -3.3009769426264683e+00  -3.2924042521140597e+00  -3.2971714118797770e+00  -3.2892821117017839e+00  -3.2928009934650886e+00  -3.2856568605940661e+00  -3.2881940744169458e+00  -3.2817532622093695e+00  -3.2834927832725378e+00  -3.2777490944637124e+00  -3.2783722822698591e+00  -3.2732956304240091e+00  -3.2724341758617426e+00  -3.2686687059230808e+00  -3.2691838327616796e+00  -3.2648722904907967e+00  -3.2652471830295773e+00  -3.2611076789521833e+00  -3.2610044439096821e+00  -3.2572594158239587e+00  -3.2867568206970579e+00  -3.2674032039057637e+00  -3.2820986789994016e+00  -3.2569657797065510e+00  -3.2533490945555035e+00  -3.2534810620115850e+00  -3.2498579454964207e+00  -3.2494199838262361e+00  -3.2461554799786838e+00  -3.2454683921779437e+00  -3.2423928617998570e+00  -3.2415582923580573e+00  -3.2385834074856765e+00  -3.2459228296295928e+00  -3.3255788976655998e+00  -3.3178550172880326e+00  -3.2377364791419487e+00  -3.2347301119746135e+00  -3.2355886935035132e+00  -3.2317687926063692e+00  -3.2308643541209849e+00  -3.2279663522476456e+00  -3.2269558282992716e+00  -3.2241501541563813e+00  -3.3115379261319107e+00  -3.2286427730750886e+00  -3.2230846348180884e+00  -3.2203520571812838e+00  -3.3009559790690082e+00  -3.2193392000575902e+00  -3.2165106269987960e+00  -3.2178299265617070e+00  -3.2136653605715106e+00  -3.2125644379606086e+00  -3.2095993301639250e+00  -3.2106892588351621e+00  -3.2066139769064383e+00  -3.2055556394454161e+00  -3.2025527140992818e+00  -3.2015024215579424e+00  -3.1984036599468948e+00  -3.1994953261224848e+00  -3.1953376117283945e+00  -3.1942344035267300e+00  -3.1911825785624828e+00  -3.1901366195301200e+00  -3.1870530899524656e+00  -3.2734040112676350e+00  -3.2696492877655925e+00  -3.2895627755000794e+00  -3.1861164448510646e+00  -3.1829608111511347e+00  -3.1839194019686419e+00  -3.1796641847985523e+00  -3.1787259435290842e+00  -3.1754191920955503e+00  -3.1806254994002794e+00  -1.4384585019297511e+00  -1.4181980140932084e+00  -1.3999122240159061e+00  -1.3786745737764010e+00  -1.3607035276906636e+00  -1.3389621927942783e+00  -3.2488438518622833e+00  -2.4584965385834034e+00  -3.3301998422457566e+00  -3.1744634191394083e+00  -3.1712160329518397e+00  -3.2606675484419125e+00  -1.7715468267456365e+00  -1.5931532904678645e+00  -1.9490055034298055e+00  -1.3210477106630112e+00  -1.2994169206417860e+00  -1.3172203433404435e+00  -1.2780562642231097e+00  -1.2598243899243404e+00  -1.2387645724960861e+00  -1.2201054136500025e+00  -1.1992854462572784e+00  -1.1802577819923867e+00  -1.1602021430218745e+00  -1.1403918004053475e+00  -1.1204305261456471e+00  -1.1004014340261128e+00  -1.0798198796319458e+00  -1.0602754357463147e+00  -1.0393663749684032e+00  -1.0200253115973079e+00  -9.9880393738851792e-01  -9.8018697734909210e-01  -9.5818960751686777e-01  -9.3966628298451016e-01  -9.1734518862256176e-01  -8.9832293773882155e-01  -8.7618736429575461e-01  -8.5724897516453435e-01  -8.3489682368767282e-01  -8.1602280427492291e-01  -7.9339806136753988e-01  -7.7451394456154743e-01  -7.5168708474918200e-01  -7.3163482523055068e-01  -7.0957277058664592e-01  -1.4359279922664661e+00  -3.1965017945884213e+00  -3.2299328886943779e+00  -3.1701494219121780e+00  -3.166907879158712