<?xml version="1.0"?>
<VTKFile type="UnstructuredGrid"  version="0.1"  >
<UnstructuredGrid>
<Piece  NumberOfPoints="2886" NumberOfCells="5412">
<Points>
<DataArray  type="Float64"  NumberOfComponents="3"  format="ascii">0 0.1 0  0.98 0.1 0  1 0.1 0  1 0 0  1.5 0 0  3 0 0  3 0.3 0  0 0.3 0  0.01975375321854102 0.1 0  0.03918897458218897 0.1 0  0.05831079002627837 0.1 0  0.07712425666319796 0.1 0  0.0956343475259058 0.1 0  0.1138459546796227 0.1 0  0.1317638870668193 0.1 0  0.1493928840275937 0.1 0  0.1667376092280033 0.1 0  0.1838026357802664 0.1 0  0.2005924801287244 0.1 0  0.2171115811543574 0.1 0  0.2333643037107681 0.1 0  0.2493549444060462 0.1 0  0.2650877293306821 0.1 0  0.2805668058011438 0.1 0  0.2957962848620976 0.1 0  0.3107801766802674 0.1 0  0.3255224447361181 0.1 0  0.3400269848175519 0.1 0  0.3542976327080778 0.1 0  0.3683381609158136 0.1 0  0.3821522744564845 0.1 0  0.3957436316838916 0.1 0  0.4091158196437086 0.1 0  0.4222723742184605 0.1 0  0.4352167733293057 0.1 0  0.4479524348643424 0.1 0  0.4604827295467524 0.1 0  0.4728109659990664 0.1 0  0.4849404035409129 0.1 0  0.4968742471455402 0.1 0  0.508615651843175 0.1 0  0.520167721130924 0.1 0  0.5315335063628542 0.1 0  0.5427160117228604 0.1 0  0.5537181940261912 0.1 0  0.564542961924507 0.1 0  0.575193173270606 0.1 0  0.5856716438765114 0.1 0  0.5959811458006617 0.1 0  0.6061243988680743 0.1 0  0.6161040893285659 0.1 0  0.6259228503970299 0.1 0  0.6355832809287655 0.1 0  0.6450879281079505 0.1 0  0.6544393102991295 0.1 0  0.663639896558931 0.1 0  0.6726921201956305 0.1 0  0.6815983691630338 0.1 0  0.6903610031396646 0.1 0  0.6989823343332418 0.1 0  0.7074646404270378 0.1 0  0.7158101645005117 0.1 0  0.7240211149852543 0.1 0  0.7320996585612525 0.1 0  0.7400479319727645 0.1 0  0.7478680336617921 0.1 0  0.755562036504958 0.1 0  0.7631319665092091 0.1 0  0.7705798279317605 0.1 0  0.777907588066146 0.1 0  0.7851171851013118 0.1 0  0.7922105226004981 0.1 0  0.7991894774550319 0.1 0  0.8060558928136696 0.1 0  0.812811583201334 0.1 0  0.8194583352091183 0.1 0  0.8259979035038147 0.1 0  0.8324320194413813 0.1 0  0.8387623808293405 0.1 0  0.8449906627004957 0.1 0  0.8511185094880469 0.1 0  0.8571475426008311 0.1 0  0.8630793533568246 0.1 0  0.8689155114558531 0.1 0  0.8746575581239063 0.1 0  0.8803070109173519 0.1 0  0.885865363938836 0.1 0  0.8913340851680313 0.1 0  0.8967146206523592 0.1 0  0.9020083930695622 0.1 0  0.9072167995950768 0.1 0  0.9123412183131177 0.1 0  0.9173830029719022 0.1 0  0.9223434865647732 0.1 0  0.9272239785872722 0.1 0  0.9320257720706087 0.1 0  0.9367501330378739 0.1 0  0.9413983102716995 0.1 0  0.9459715351562933 0.1 0  0.9504710127113115 0.1 0  0.9548979346500661 0.1 0  0.9592534708344373 0.1 0  0.9635387708980176 0.1 0  0.9677549682252325 0.1 0  0.971903177251235 0.1 0  0.9759844952956497 0.1 0  0.9840000000000086 0.1 0  0.987999999999974 0.1 0  0.9919999999999393 0.1 0  0.9959999999999913 0.1 0  1 0.09591793123533533 0  1 0.09133596463859224 0  1 0.08619288104391448 0  1 0.08041996484521211 0  1 0.07394008421771697 0  1 0.06666666567302955 0  1 0.05850252932209174 0  1 0.04933859630113544 0  1 0.03905242821848202 0  1 0.02750659386753798 0  1 0.01454683679239736 0  1.015625 0 0  1.03125 0 0  1.046875 0 0  1.0625 0 0  1.078125 0 0  1.09375 0 0  1.109375 0 0  1.125 0 0  1.140625 0 0  1.15625 0 0  1.171875 0 0  1.1875 0 0  1.203125 0 0  1.21875 0 0  1.234375 0 0  1.25 0 0  1.265625 0 0  1.28125 0 0  1.296875 0 0  1.3125 0 0  1.328125 0 0  1.34375 0 0  1.359375 0 0  1.375 0 0  1.390625 0 0  1.40625 0 0  1.421875 0 0  1.4375 0 0  1.453125 0 0  1.46875 0 0  1.484375 0 0  1.515920751924515 0 0  1.531989369316721 0 0  1.54820720925872 0 0  1.564575665560501 0 0  1.581096138674279 0 0  1.597770029901263 0 0  1.614598783332311 0 0  1.631583831055205 0 0  1.64872661129721 0 0  1.666028606716533 0 0  1.683491276608443 0 0  1.701116134125304 0 0  1.718904673324128 0 0  1.736858414799339 0 0  1.754978895814663 0 0  1.773267661782904 0 0  1.791726281103402 0 0  1.810356325314689 0 0  1.8291593848892 0 0  1.848137076690385 0 0  1.867291007717254 0 0  1.886622833871288 0 0  1.90613418642363 0 0  1.925826753299799 0 0  1.945702199101513 0 0  1.96576223584749 0 0  1.986008569283268 0 0  2.006442931928877 0 0  2.02706707547783 0 0  2.047882750887917 0 0  2.06889175187935 0 0  2.090095860038271 0 0  2.111496891648636 0 0  2.133096679109554 0 0  2.154897066851056 0 0  2.176899916687499 0 0  2.199107102752146 0 0  2.22152053937028 0 0  2.244142122958061 0 0  2.266973806444078 0 0  2.290017523268154 0 0  2.313275249499252 0 0  2.336748971745516 0 0  2.360440702338606 0 0  2.384352453384031 0 0  2.408486280477412 0 0  2.432844240041185 0 0  2.457428414757088 0 0  2.482240901796653 0 0  2.507283830121838 0 0  2.532559332080812 0 0  2.558069568787417 0 0  2.583816724966441 0 0  2.60980299606584 0 0  2.636030600971886 0 0  2.662501790984011 0 0  2.689218818279327 0 0  2.716183964547616 0 0  2.743399548861297 0 0  2.77086788244719 0 0  2.798591312896326 0 0  2.826572223178268 0 0  2.854812990138617 0 0  2.883316031690714 0 0  2.912083780657189 0 0  2.941118704633482 0 0  2.970423276998917 0 0  3 0.02999999999994495 0  3 0.05999999999987042 0  3 0.089999999999783 0  3 0.119999999999701 0  3 0.149999999999619 0  3 0.179999999999692 0  3 0.2099999999997737 0  3 0.2399999999998511 0  3 0.2699999999999185 0  2.970138294777171 0.3 0  2.940375666438236 0.3 0  2.910711782853056 0.3 0  2.881146331305122 0.3 0  2.851678975030285 0.3 0  2.822309388626621 0.3 0  2.793037250095074 0.3 0  2.76386223529133 0.3 0  2.734784017903872 0.3 0  2.705802289276642 0.3 0  2.676916713794697 0.3 0  2.648126987654635 0.3 0  2.619432780406184 0.3 0  2.590833779385199 0.3 0  2.562329669847737 0.3 0  2.533920134950189 0.3 0  2.505604855727852 0.3 0  2.477383539822502 0.3 0  2.449255847639465 0.3 0  2.421221492569094 0.3 0  2.393280152486815 0.3 0  2.36543151914496 0.3 0  2.337675285481809 0.3 0  2.310011142385583 0.3 0  2.282438797441587 0.3 0  2.254957931061538 0.3 0  2.227568248063605 0.3 0  2.200269436651085 0.3 0  2.173061204949961 0.3 0  2.145943251515011 0.3 0  2.118915272469994 0.3 0  2.091976978084957 0.3 0  2.065128060700849 0.3 0  2.038368218849433 0.3 0  2.01169717777258 0.3 0  1.985114624111908 0.3 0  1.958620267850966 0.3 0  1.93221382054972 0.3 0  1.905894991850698 0.3 0  1.879663489459713 0.3 0  1.853519019126419 0.3 0  1.827461291053897 0.3 0  1.801490031354372 0.3 0  1.775604937580312 0.3 0  1.74980572560258 0.3 0  1.724092118631866 0.3 0  1.698463829173586 0.3 0  1.672920575782554 0.3 0  1.647462076974085 0.3 0  1.622088043536933 0.3 0  1.5967981978949 0.3 0  1.571592267767068 0.3 0  1.546469970305736 0.3 0  1.521431023814044 0.3 0  1.496475156230927 0.3 0  1.471602093687753 0.3 0  1.446811560490646 0.3 0  1.422103279101731 0.3 0  1.397476971708191 0.3 0  1.37293238939876 0.3 0  1.348469231419202 0.3 0  1.324087248732772 0.3 0  1.299786165921677 0.3 0  1.275565710847046 0.3 0  1.251425617644257 0.3 0  1.227365618676339 0.3 0  1.203385446174014 0.3 0  1.179484853067473 0.3 0  1.155663548773374 0.3 0  1.131921292279077 0.3 0  1.108257802159295 0.3 0  1.084672829009693 0.3 0  1.061166115303374 0.3 0  1.037737392995421 0.3 0  1.01438640299116 0.3 0  0.991112899770314 0.3 0  0.9679166155523955 0.3 0  0.944797284182564 0.3 0  0.921754678526042 0.3 0  0.8987885143602501 0.3 0  0.8758985548820624 0.3 0  0.8530845484099929 0.3 0  0.8303462351786988 0.3 0  0.8076833651172373 0.3 0  0.7850956864865304 0.3 0  0.7625829601354557 0.3 0  0.7401449314598274 0.3 0  0.717781337993959 0.3 0  0.6954919649675473 0.3 0  0.6732765357561226 0.3 0  0.6511348120768439 0.3 0  0.6290665642016573 0.3 0  0.6070715355430467 0.3 0  0.5851494825775325 0.3 0  0.5633001690203812 0.3 0  0.5415233562273221 0.3 0  0.5198187909431873 0.3 0  0.4981862401387795 0.3 0  0.4766254686134248 0.3 0  0.4551362360485234 0.3 0  0.4337182975262159 0.3 0  0.4123714223228037 0.3 0  0.3910953802377493 0.3 0  0.3698899313205595 0.3 0  0.3487548463710963 0.3 0  0.3276898864081783 0.3 0  0.3066948129116018 0.3 0  0.2857694003037476 0.3 0  0.2649134227095047 0.3 0  0.2441266417321288 0.3 0  0.2234088223399122 0.3 0  0.2027597568977288 0.3 0  0.1821792020676698 0.3 0  0.1616669305402443 0.3 0  0.1412227158799362 0.3 0  0.12084633013886 0.3 0  0.1005375673448281 0.3 0  0.08029618164595353 0.3 0  0.06012194778526769 0.3 0  0.04001466495039718 0.3 0  0.01997408913631205 0.3 0  0 0.2800000000000553 0  0 0.2600000000001105 0  0 0.2400000000001658 0  0 0.2200000000002211 0  0 0.2000000000002764 0  0 0.1800000000002244 0  0 0.1600000000001691 0  0 0.140000000000115 0  0 0.1200000000000564 0  1.13346801534201 0.01255848438672509 0  1.003577645172735 0.09351054173913405 0  0.9777559943702486 0.1034978156913738 0  0.9524533750752109 0.1040889939962738 0  0.9296242411226409 0.1041520033606139 0  0.9046110503652111 0.104409422380137 0  0.8777709649694228 0.1053360318797398 0  0.8483859145648608 0.1061007868330701 0  0.8162363822948977 0.1052777104363292 0  0.7893110024210437 0.1060761643971561 0  0.7587949382612539 0.1067265405088633 0  0.7280603867732535 0.1069398153264939 0  0.6947001989413015 0.1075609887579097 0  0.6590363283767549 0.1076715322596598 0  0.6210028614493155 0.1072970410408442 0  1.1953125 0.01353164693413185 0  1.258193991486058 0.01269648635163345 0  1.3201967268638 0.01407907077719561 0  1.383538555392096 0.01434101079053473 0  1.445312500000001 0.01303671693628424 0  1.508925448095738 0.01398525724792267 0  0.9939176689634008 0.1034638089837981 0  1.120967497222226 0.2796788492172345 0  1.572835902117391 0.01424132418857359 0  1.637573277451887 0.01212536916586023 0  1.709730776795181 0.01466855431023635 0  1.005631976950563 0.07074019818158772 0  1.784944696816299 0.01454708406461822 0  0.5805605730631225 0.1101465090472147 0  1.855621181165637 0.01550931272897607 0  0.5366111276616774 0.1096761308243709 0  1.935200147913231 0.01760344159641829 0  1.214922267975168 0.2799787705802257 0  1.31178773425331 0.2792
[...]
<PointData  Scalars="pressure"> 
<DataArray  type="Float64"  Name="pressure"  format="ascii">1.5386072455461744e-01  -1.6685004101358461e-01  -2.1150926162344763e-01  -1.5937875494608289e-01  -3.7845194120417633e-02  0.0000000000000000e+00  0.0000000000000000e+00  1.5386882106792174e-01  1.4793460280988105e-01  1.4210396149198415e-01  1.3636723021220257e-01  1.3072288328071879e-01  1.2516940458584044e-01  1.1970531344953890e-01  1.1432917624638383e-01  1.0903951648301889e-01  1.0383493901159337e-01  9.8714053334121463e-02  9.3675448137176126e-02  8.8717771794820502e-02  8.3839709290517844e-02  7.9039888915392112e-02  7.4317009051961605e-02  6.9669858665744017e-02  6.5097022507136171e-02  6.0597308997889107e-02  5.6169469962674912e-02  5.1812189833420910e-02  4.7524302956333531e-02  4.3304680207401185e-02  3.9151943527366201e-02  3.5065014841081370e-02  3.1042581807131191e-02  2.7083541753480090e-02  2.3186850610994798e-02  1.9351209461249349e-02  1.5575418942502034e-02  1.1858425018355698e-02  8.1990791401960941e-03  4.5961609438206668e-03  1.0486721654625565e-03  -2.4446575923394911e-03  -5.8848626856327938e-03  -9.2731529204764379e-03  -1.2610624765605320e-02  -1.5897937239481463e-02  -1.9137027050072350e-02  -2.2328486220713577e-02  -2.5473462670387460e-02  -2.8573298922585876e-02  -3.1629043267269619e-02  -3.4641098804817465e-02  -3.7611686056089409e-02  -4.0541258487279658e-02  -4.3430990492489316e-02  -4.6282073446178337e-02  -4.9095538373746278e-02  -5.1872483393067208e-02  -5.4614160499115404e-02  -5.7321543508104797e-02  -5.9995644634353348e-02  -6.2637463451129152e-02  -6.5248709538611560e-02  -6.7829741337939425e-02  -7.0381925782994695e-02  -7.2905934182374843e-02  -7.5403993462017621e-02  -7.7876522600674833e-02  -8.0323727431676664e-02  -8.2747526531894003e-02  -8.5149651698365192e-02  -8.7529699907246114e-02  -8.9889974067000014e-02  -9.2231244980916949e-02  -9.4553786059880018e-02  -9.6859366725660909e-02  -9.9148967496688806e-02  -1.0142361297028180e-01  -1.0368526652210032e-01  -1.0593401019757474e-01  -1.0817034608421068e-01  -1.1039502623587276e-01  -1.1261201883676181e-01  -1.1482027124702296e-01  -1.1702058373750852e-01  -1.1921514812496330e-01  -1.2140445967550287e-01  -1.2358967064624590e-01  -1.2577214388913985e-01  -1.2795416880634999e-01  -1.3013637020101773e-01  -1.3231917795153939e-01  -1.3450555649681792e-01  -1.3669677871567695e-01  -1.3889444316637289e-01  -1.4110054571307812e-01  -1.4331695386094054e-01  -1.4554615401287280e-01  -1.4779087140575808e-01  -1.5005428773563170e-01  -1.5234035101753771e-01  -1.5465142644807187e-01  -1.5699628508013144e-01  -1.5937910709512620e-01  -1.6180772146874386e-01  -1.6429110602663100e-01  -1.6950440176570081e-01  -1.7220249372372795e-01  -1.7617353081192960e-01  -1.7108799064183616e-01  -2.0045415348677414e-01  -1.7969796861594869e-01  -1.7320188865003347e-01  -1.6844495555165503e-01  -1.6521931832853112e-01  -1.6279289368482641e-01  -1.6097151385787936e-01  -1.5963310525499605e-01  -1.5882599978843737e-01  -1.5862340332952204e-01  -1.5902617875015604e-01  -1.5982012383420810e-01  -1.6019161932583231e-01  -1.5997942282784611e-01  -1.5929855036189261e-01  -1.5823909110258749e-01  -1.5684428068048659e-01  -1.5509851098695140e-01  -1.5298858717247540e-01  -1.5054375143372770e-01  -1.4778160134276266e-01  -1.4470626198888162e-01  -1.4133187394581576e-01  -1.3767005700626256e-01  -1.3373339211921070e-01  -1.2954304593624297e-01  -1.2511275441069400e-01  -1.2045574972630906e-01  -1.1559130099264356e-01  -1.1053927348829459e-01  -1.0531157239293108e-01  -9.9938713434262694e-02  -9.4440507744647170e-02  -8.8833693260174415e-02  -8.3150152748391049e-02  -7.7408892684779407e-02  -7.1640895278440767e-02  -6.5868880523944351e-02  -6.0116075117123857e-02  -5.4414694930467279e-02  -4.8785967976811173e-02  -4.3256025425586112e-02  -3.2478877872253190e-02  -2.7241518810788099e-02  -2.2142647786557182e-02  -1.7215733841937850e-02  -1.2486465094276148e-02  -7.9574853523282814e-03  -3.6528464983063601e-03  4.2273042917666872e-04  4.2210102869256290e-03  7.7677205587673324e-03  1.1064545241090516e-02  1.4091395685671452e-02  1.6851669468114491e-02  1.9353915617540674e-02  2.1603334993247712e-02  2.3606008669013537e-02  2.5378422561684207e-02  2.6922202765464538e-02  2.8251954460986429e-02  2.9398953714505110e-02  3.0352382722375552e-02  3.1142429895790105e-02  3.1782862631680106e-02  3.2281675554293794e-02  3.2660242851686463e-02  3.2922854148522793e-02  3.3099635726139352e-02  3.3181651701916545e-02  3.3188990117503078e-02  3.3126252242364575e-02  3.3000881752448204e-02  3.2821660008091613e-02  3.2597192227905858e-02  3.2331092494563674e-02  3.2023895753420635e-02  3.1682079298177256e-02  3.1306043831292020e-02  3.0898007736565550e-02  3.0458713280158912e-02  2.9988249919417797e-02  2.9486657399300738e-02  2.8953563445037918e-02  2.8387547183360180e-02  2.7788560372849779e-02  2.7154064248816834e-02  2.6482596099915271e-02  2.5774893617002897e-02  2.5026233647264827e-02  2.4234880660062828e-02  2.3404429581791165e-02  2.2526192307002441e-02  2.1606291203879704e-02  2.0635336472417384e-02  1.9621020956745859e-02  1.8556316174162885e-02  1.7437603119916874e-02  1.6274566944796721e-02  1.5054259552368075e-02  1.3786880038546103e-02  1.2466975480257832e-02  1.1093412862427527e-02  9.6667172991937184e-03  8.1886419046913045e-03  6.6620922232981418e-03  5.0774947930365098e-03  3.4531718267505323e-03  1.7732091771388238e-03  0.0000000000000000e+00  0.0000000000000000e+00  0.0000000000000000e+00  0.0000000000000000e+00  0.0000000000000000e+00  0.0000000000000000e+00  0.0000000000000000e+00  0.0000000000000000e+00  0.0000000000000000e+00  1.9188539245883717e-03  3.7116075727182856e-03  5.4787927397163547e-03  7.1934813266192046e-03  8.8595500678218184e-03  1.0475865339174391e-02  1.2041633011166591e-02  1.3555181301535484e-02  1.5013654070019511e-02  1.6414977691336211e-02  1.7755197439006307e-02  1.9031973561726052e-02  2.0240308927949136e-02  2.1377316168978477e-02  2.2438231380292675e-02  2.3416724475144413e-02  2.4312403879969732e-02  2.5114308886246325e-02  2.5817866339319571e-02  2.6417034297231912e-02  2.6905080939801904e-02  2.7275324861156896e-02  2.7522255460360332e-02  2.7635300176853516e-02  2.7612278304645514e-02  2.7442009870210751e-02  2.7122005419586755e-02  2.6640810150144870e-02  2.5993250319967864e-02  2.5176500929284994e-02  2.4179822594582498e-02  2.2997591413946358e-02  2.1644371458928408e-02  2.0105285568483715e-02  1.8354916954595474e-02  1.6433288094326006e-02  1.4315986920042295e-02  1.2004703086613784e-02  9.5001308219358708e-03  6.8103169166071082e-03  3.9257780470544944e-03  8.6022421229703535e-04  -2.3943382650662148e-03  -5.8276583473152307e-03  -9.4504785520314796e-03  -1.3248211899619947e-02  -1.7221369828168159e-02  -2.1362267985318328e-02  -2.5673089174165383e-02  -3.0140970724039540e-02  -3.4763722093239600e-02  -3.9530331082663801e-02  -4.4428775398229474e-02  -4.9450853764758475e-02  -5.4581424993594904e-02  -5.9799068245269607e-02  -6.5049870483195396e-02  -7.0373718818619369e-02  -7.5692977444375767e-02  -8.0952572320592248e-02  -8.6154726989726177e-02  -9.1232191692112261e-02  -9.6167676679089556e-02  -1.0085910526764710e-01  -1.0530235392249247e-01  -1.0939200213087405e-01  -1.1311693723580489e-01  -1.1637120889182431e-01  -1.1915846647794941e-01  -1.2134857931725768e-01  -1.2295456736369337e-01  -1.2390064122419789e-01  -1.2405034788189664e-01  -1.2356757699753473e-01  -1.2229943004165057e-01  -1.2024091252334472e-01  -1.1749806733266564e-01  -1.1408258636146765e-01  -1.1011984969656259e-01  -1.0567815203625743e-01  -1.0075241764548974e-01  -9.5489998935836776e-02  -8.9932645272751105e-02  -8.4183517812674719e-02  -7.8247044101223170e-02  -7.2154535375443904e-02  -6.5964920286265993e-02  -5.9692915681274980e-02  -5.3351067413973559e-02  -4.6966059930790310e-02  -4.0543683678305312e-02  -3.4104690782736501e-02  -2.7652399734194106e-02  -2.1189753684149663e-02  -1.4729704205521629e-02  -8.2736632890552161e-03  -1.8230270364104674e-03  4.6182641428983229e-03  1.1046696977679753e-02  1.7460952985928903e-02  2.3860433040883450e-02  3.0243398908902961e-02  3.6609626394983816e-02  4.2957291953004739e-02  4.9286784385288981e-02  5.5597277892600029e-02  6.1888456540389866e-02  6.8160204167085570e-02  7.4412164701119998e-02  8.0644272828532912e-02  8.6856480305048320e-02  9.3048670829347507e-02  9.9220805721057473e-02  1.0537287676390568e-01  1.1150488830868668e-01  1.1761680790102659e-01  1.2370870745832122e-01  1.2978060114338780e-01  1.3583251317518719e-01  1.4186449712033714e-01  1.4787658326446454e-01  1.5386878977297877e-01  1.5386845319220233e-01  1.5386763129726810e-01  1.5386634120263151e-01  1.5386477420265565e-01  1.5386320558598379e-01  1.5386191279501063e-01  1.5386108542283694e-01  1.5386075004973343e-01  -1.5140189322660746e-01  -1.8390197756140855e-01  -1.6573950239580360e-01  -1.5125592825767653e-01  -1.4011789535361341e-01  -1.2913466734529119e-01  -1.1830813002691959e-01  -1.0723565364229322e-01  -9.5782057322748679e-02  -8.6590778388318759e-02  -7.6486116969957621e-02  -6.6559048791485942e-02  -5.5992253498277043e-02  -4.4866303100705059e-02  -3.3138752243230284e-02  -1.3936204825778634e-01  -1.2266392392158029e-01  -1.0277360054180476e-01  -8.0227192083163840e-02  -5.7544524912854687e-02  -3.5201318459794337e-02  -1.7916140955976409e-01  -1.2153924091434330e-01  -1.5245095908801798e-02  1.3988716613373914e-03  1.5063122847278738e-02  -1.6467681994837860e-01  2.4416552244189316e-02  -2.0777941123729785e-02  2.9508705364075141e-02  -7.4271495377434401e-03  3.2255917350878190e-02  -1.1069359998410441e-01  -9.3075925853849426e-02  3.3063806144006565e-02  -7.2610360052972236e-02  6.3976129481731195e-03  -4.6550718152335364e-02  3.2627376788323038e-02  2.1267389049674585e-02  -1.5705536659787725e-01  3.1426331752208152e-02  -2.3298412111889873e-02  -1.2335176820206323e-01  3.6676078480019983e-02  2.9689027321311769e-02  -7.1855167052678655e-04  5.4177724145921417e-02  8.0158240847105072e-03  2.7407237167453229e-02  1.5465167555416291e-02  7.1470963243921645e-02  -1.1855079524672787e-01  2.4644962419244288e-02  2.0858094549590801e-02  -1.0777255317446675e-01  2.4678456593589835e-02  2.1101067684952519e-02  -9.2698298666027648e-02  9.1672490112774604e-02  1.0569010585277466e-01  -1.1249580715886316e-02  1.7966026528911671e-02  1.4246095128501734e-02  2.6807492581693411e-02  -7.5400080103706427e-02  2.7472123666816416e-02  -1.5816941136107227e-01  -5.0596057521176525e-02  2.6562592270330587e-02  1.2314224076505458e-01  -3.0915831528649709e-02  1.0351165860198139e-02  2.3799769563787702e-02  -1.1380657174885150e-02  1.4421037494015312e-02  2.0742813104126276e-02  4.6122749572988161e-02  1.7028727788082731e-02  6.5080647274746953e-02  8.3856389394083769e-02  1.2756543870846017e-02  1.1545516909913568e-01  1.6117998337547722e-03  1.4828489621143195e-01  -1.5982362198353475e-01  8.1247835746962420e-03  5.7464073811272958e-03  1.3325755222309721e-01  -1.7117323309874938e-01  -1.5914552233196330e-01  -1.1714949180600871e-01  -6.2734484890689321e-02  9.0453711842061160e-04  2.6720058315890093e-02  1.3359658934370205e-01  -3.7272659522825491e-02  -6.1719531622903473e-02  -8.2934404890404712e-02  -1.0242362199696506e-01  8.1734271017724930e-02  2.7427940575815390e-02  6.2559276171931771e-02  9.6097314222903657e-02  2.5380778693310516e-02  2.2958712770469486e-02  4.4854298916283439e-02  2.6021040128221321e-02  2.8629328865666069e-02  2.9312218960635142e-02  3.0621832476350808e-02  3.2105355217868600e-02  3.2974518338306696e-02  3.2875612860310981e-02  -2.5064953151840017e-02  1.3714932364030045e-02  3.1177033831175014e-02  2.7288146513073295e-02  -6.8160546420916010e-04  2.0344124035840599e-02  9.0385827320656753e-03  -6.0526309721006368e-03  1.3437317284293482e-03  -1.4619448252263854e-02  -2.6576159104250270e-02  1.4862437365467795e-01  -3.8767382307324461e-02  -5.0497265448795230e-02  -6.1334497297519712e-02  -7.1761081398076895e-02  -8.1615453372760244e-02  -9.0990132579943817e-02  -1.4585908973561340e-01  -1.0260528987980322e-01  -1.1377757485865873e-01  -1.2476540612507384e-01  -1.3158007105174999e-01  -1.3577970370184997e-01  -9.1983545440809250e-02  -1.1260857186593090e-01  -6.9843207039357147e-02  -4.6342734663481613e-02  -1.4680784134656358e-01  -1.7148295624827917e-01  1.6892918092117255e-03  1.4812837081686733e-01  4.5261592285221197e-03  -1.5958855189087517e-01  1.4887612095878816e-01  1.3705940533701908e-03  1.4477280945201998e-01  -1.5955138155639781e-01  -1.5921054162838080e-01  -1.5874280857022091e-01  -1.5925077846290608e-01  -1.5876566917480883e-01  -1.5960142491572671e-01  -1.5893408374604051e-01  -1.6005316009215795e-01  -1.5921489556110058e-01  -1.6036905054909675e-01  -1.5941181123860201e-01  -1.6028708920132367e-01  -1.5913314874158452e-01  -1.5964743568184064e-01  -1.5835350061679138e-01  -1.5856414976815317e-01  -1.5709025460071011e-01  -1.5710797898551609e-01  -1.5546054459101918e-01  -1.5513636427920907e-01  -1.5316302182609032e-01  -1.5686626688363023e-01  -1.5359381304600347e-01  -1.5090379416872057e-01  -1.5428403450279710e-01  -1.5633190076079195e-01  -1.5112019454264242e-01  -1.4827361604494929e-01  -1.4841578866386890e-01  -1.4520003868235398e-01  -1.4522678846077888e-01  -1.4169153303579068e-01  -1.4163164969944489e-01  -1.3801622531706798e-01  -1.3762607926938311e-01  -1.3328905460411689e-01  -1.3299684852016205e-01  -1.2882993141409813e-01  -1.2812208143122500e-01  -1.2379794663084105e-01  -1.2284848979706672e-01  -1.1844381889034226e-01  -1.1726516466914916e-01  -1.1283000047796968e-01  -1.1138238484227204e-01  -1.0698752952933678e-01  -1.0523582435302685e-01  -1.0093682556169752e-01  -9.8893388123799844e-02  -9.4755811715318328e-02  -9.2376507434450500e-02  -8.8486200558762676e-02  -8.5636309515591827e-02  -1.5273956474363637e-01  -1.5470707562138164e-01  -8.2152089827774014e-02  -7.8879409798054426e-02  -7.5820105916568611e-02  -7.2554228583550817e-02  -6.9604695612348888e-02  -6.5984213645662038e-02  -6.3499022055104215e-02  -5.9553502409392174e-02  -1.4728244915967989e-01  -5.7615104498113572e-02  -5.3252530849472457e-02  -5.1692181806904720e-02  -4.7103910409196197e-02  -4.6133509650228686e-02  -4.1242293561272882e-02  -1.5033078069665279e-01  -1.5257943395355097e-01  -1.6078958957884817e-01  -4.0757322044601328e-02  -3.5591171439108650e-02  -3.5663131105142742e-02  -3.0234007239026143e-02  -3.0832973256258490e-02  -2.5198056741512181e-02  -1.5785748596634774e-01  -2.6281983178251176e-02  -2.0451201549676154e-02  -1.3744356415616621e-01  -2.1994874778886644e-02  -1.6036693883787069e-02  -1.7999569045498258e-02  -1.1944387052916823e-02  -1.4211126800723497e-02  -8.1637508787280929e-03  -1.5771394624163107e-01  -1.2381447090278140e-01  -1.0755539124139762e-02  -4.6925728257227002e-03  -1.4706968581792057e-01  -1.4866796167247859e-01  -1.4519153333684459e-01  -1.0778391993055265e-01  -7.4869926916921025e-03  -1.3711602872837744e-03  -4.5565744903325574e-03  1.6024572597894931e-03  -1.7712885767741597e-03  4.1698996167051161e-03  -3.6202859673985628e-02  1.5417626204318627e-03  -1.9622287521478564e-02  -5.5327754620282436e-02  8.0884846588172277e-04  6.5219536133651950e-03  9.8948478382430982e-03  1.2079518206998227e-02  8.7230546453274053e-03  1.4047671594949749e-02  1.0800409442159970e-02  1.5883832224469506e-02  1.2673663673000712e-02  1.7477433807660075e-02  1.4388800840066003e-02  1.8948175504664835e-02  1.6004476854425770e-02  2.0237918935076166e-02  1.7403752866335984e-02  2.1417817885551853e-02  1.8804395965002829e-02  2.2592494376510164e-02  2.0053313241305826e-02  2.3554389162347936e-02  2.1230959224082937e-02  2.4387559996280866e-02  2.2170032120803478e-02  2.5146776660486703e-02  -7.5357298570274830e-02  -9.0679007558005592e-02  2.3131206243824098e-02  2.5784275421972348e-02  2.4040805089961741e-02  2.6391903441385207e-02  -1.4444138557138483e-01  -1.0916403573836335e-01  2.4848166108069714e-02  2.6889151843003591e-02  -1.2652715737899342e-01  -7.3338390927923797e-02  -1.4290152137443984e-01  -1.4414085428412629e-01  -1.5077620007447839e-01  -1.4513143214600194e-01  -1.5087477130878313e-01  -1.4546012680804291e-01  -1.5173374489680966e-01  -1.4528716540944175e-01  -1.4989646867221187e-01  -1.4404403558993850e-01  -1.4882834784260229e-01  -1.4231055513979646e-01  -1.4555596043533503e-01  -1.3979042810706147e-01  -1.4228120099565514e-01  -1.3696187313422151e-01  -1.3873009051345778e-01  -1.3375223664971442e-01  -1.3501448292898680e-01  -1.3037347002531785e-01  -1.3118785028671709e-01  -1.2683866956013368e-01  -1.2733458973919504e-01  -1.2324141113323886e-01  -1.2346592366236682e-01  -1.1964419096626307e-01  -1.1926827799356067e-01  -1.1573328196741123e-01  -1.1573678132073259e-01  -1.1213303539424710e-01  -1.1202712944510695e-01  -1.0852231183869200e-01  -1.0842172104772281e-01  -1.0495183357416039e-01  -1.0456257353436574e-01  -1.0130930086390394e-01  -1.3423281852019620e-01  -1.1164448195152074e-01  -1.2558897138858688e-01  -1.0083804901592251e-01  -9.7586906407285387e-02  -9.7804402353905737e-02  -9.4270536667438648e-02  -9.3823355094377975e-02  -9.0656157224915157e-02  -9.0013593396706948e-02  -8.6980072531438565e-02  -8.6218526556967712e-02  -8.3240675817665130e-02  -9.0364603428126286e-02  -1.5626452673197239e-01  -1.5120327259059205e-01  -8.2484575006351576e-02  -7.9446683498160448e-02  -8.0153944707492472e-02  -7.6372907067869950e-02  -7.5629267005994164e-02  -7.2613019980477631e-02  -7.1754090288511124e-02  -6.8824602073662880e-02  -1.4377365963272626e-01  -7.3092466139456830e-02  -6.7902122624793837e-02  -6.5050401372553759e-02  -1.3547747721177830e-01  -6.4164663343753911e-02  -6.1218302795743924e-02  -6.2373255957681152e-02  -5.8224588318122557e-02  -5.7277614781731948e-02  -5.4177068568728885e-02  -5.5078696546306989e-02  -5.1037950189352262e-02  -5.0146702709089934e-02  -4.7004408972881592e-02  -4.6100104324140093e-02  -4.2876409287147171e-02  -4.3804386783116357e-02  -3.9682793563121280e-02  -3.8721311732725736e-02  -3.5555206383691362e-02  -3.4628960141167127e-02  -3.1444007636782921e-02  -1.4010882719540260e-01  -1.1183694041698990e-01  -1.2714285486316274e-01  -3.0608972034005446e-02  -2.7364178324471727e-02  -2.8210521826940057e-02  -2.3979141438235884e-02  -2.3135545401960018e-02  -1.9753054387989334e-02  -2.4824083764886564e-02  2.5487255801067154e-02  2.7302038239086890e-02  2.6066367866470940e-02  2.7647734964456799e-02  2.6580133310427339e-02  2.7922925164922837e-02  -9.3204251514630826e-02  -4.5889902522055895e-02  -1.6062825172211773e-01  -1.8875300859182195e-02  -1.5561357955091903e-02  -1.0395749859364391e-01  2.3267110409898525e-02  2.7170576939118930e-02  1.4932965397862777e-02  2.7003008982421965e-02  2.8118481576119715e-02  2.9125637933070724e-02  2.9106269359110763e-02  2.8240391791603293e-02  2.9034875985083732e-02  2.8295245913113446e-02  2.8905097562378499e-02  2.8268733354797116e-02  2.8709847764693250e-02  2.8170450312597600e-02  2.8456598214483372e-02  2.7989390683323030e-02  2.8132492222618117e-02  2.7733201631000411e-02  2.7749273457435032e-02  2.7404589463900026e-02  2.7305107947397822e-02  2.7007198611616483e-02  2.6801994370443758e-02  2.6530228330088387e-02  2.6225267752013986e-02  2.5972549031366518e-02  2.5597261411379312e-02  2.5339119898030570e-02  2.4883432719927111e-02  2.4645881308353598e-02  2.4129345033328385e-02  2.3859118233063616e-02  2.3290556735230224e-02  2.3018384842215571e-02  2.2404346231174849e-02  2.8826995951052044e-02  -4.0678017170293748e-02  -7.4804501811064392e-02  -1.4559548699198266e-02  -1.1259658389799554e-02  -1.2251674523359363e-02  -7.7997608313800336e-03  -8.8358947480436604e-03  -4.2816111159723717e-03  -3.3640774008948590e-03  1.7297153752690919e-04  1.2116414327194374e-03  4.7203252123193306e-03  3.7789855995624278e-03  8.3139001666335272e-03  9.1142752120241151e-03  1.2814132614615474e-02  1.3601608566873034e