<?xml version="1.0"?>
<VTKFile type="UnstructuredGrid"  version="0.1"  >
<UnstructuredGrid>
<Piece  NumberOfPoints="2886" NumberOfCells="5412">
<Points>
<DataArray  type="Float64"  NumberOfComponents="3"  format="ascii">0 0.1 0  0.98 0.1 0  1 0.1 0  1 0 0  1.5 0 0  3 0 0  3 0.3 0  0 0.3 0  0.01975375321854102 0.1 0  0.03918897458218897 0.1 0  0.05831079002627837 0.1 0  0.07712425666319796 0.1 0  0.0956343475259058 0.1 0  0.1138459546796227 0.1 0  0.1317638870668193 0.1 0  0.1493928840275937 0.1 0  0.1667376092280033 0.1 0  0.1838026357802664 0.1 0  0.2005924801287244 0.1 0  0.2171115811543574 0.1 0  0.2333643037107681 0.1 0  0.2493549444060462 0.1 0  0.2650877293306821 0.1 0  0.2805668058011438 0.1 0  0.2957962848620976 0.1 0  0.3107801766802674 0.1 0  0.3255224447361181 0.1 0  0.3400269848175519 0.1 0  0.3542976327080778 0.1 0  0.3683381609158136 0.1 0  0.3821522744564845 0.1 0  0.3957436316838916 0.1 0  0.4091158196437086 0.1 0  0.4222723742184605 0.1 0  0.4352167733293057 0.1 0  0.4479524348643424 0.1 0  0.4604827295467524 0.1 0  0.4728109659990664 0.1 0  0.4849404035409129 0.1 0  0.4968742471455402 0.1 0  0.508615651843175 0.1 0  0.520167721130924 0.1 0  0.5315335063628542 0.1 0  0.5427160117228604 0.1 0  0.5537181940261912 0.1 0  0.564542961924507 0.1 0  0.575193173270606 0.1 0  0.5856716438765114 0.1 0  0.5959811458006617 0.1 0  0.6061243988680743 0.1 0  0.6161040893285659 0.1 0  0.6259228503970299 0.1 0  0.6355832809287655 0.1 0  0.6450879281079505 0.1 0  0.6544393102991295 0.1 0  0.663639896558931 0.1 0  0.6726921201956305 0.1 0  0.6815983691630338 0.1 0  0.6903610031396646 0.1 0  0.6989823343332418 0.1 0  0.7074646404270378 0.1 0  0.7158101645005117 0.1 0  0.7240211149852543 0.1 0  0.7320996585612525 0.1 0  0.7400479319727645 0.1 0  0.7478680336617921 0.1 0  0.755562036504958 0.1 0  0.7631319665092091 0.1 0  0.7705798279317605 0.1 0  0.777907588066146 0.1 0  0.7851171851013118 0.1 0  0.7922105226004981 0.1 0  0.7991894774550319 0.1 0  0.8060558928136696 0.1 0  0.812811583201334 0.1 0  0.8194583352091183 0.1 0  0.8259979035038147 0.1 0  0.8324320194413813 0.1 0  0.8387623808293405 0.1 0  0.8449906627004957 0.1 0  0.8511185094880469 0.1 0  0.8571475426008311 0.1 0  0.8630793533568246 0.1 0  0.8689155114558531 0.1 0  0.8746575581239063 0.1 0  0.8803070109173519 0.1 0  0.885865363938836 0.1 0  0.8913340851680313 0.1 0  0.8967146206523592 0.1 0  0.9020083930695622 0.1 0  0.9072167995950768 0.1 0  0.9123412183131177 0.1 0  0.9173830029719022 0.1 0  0.9223434865647732 0.1 0  0.9272239785872722 0.1 0  0.9320257720706087 0.1 0  0.9367501330378739 0.1 0  0.9413983102716995 0.1 0  0.9459715351562933 0.1 0  0.9504710127113115 0.1 0  0.9548979346500661 0.1 0  0.9592534708344373 0.1 0  0.9635387708980176 0.1 0  0.9677549682252325 0.1 0  0.971903177251235 0.1 0  0.9759844952956497 0.1 0  0.9840000000000086 0.1 0  0.987999999999974 0.1 0  0.9919999999999393 0.1 0  0.9959999999999913 0.1 0  1 0.09591793123533533 0  1 0.09133596463859224 0  1 0.08619288104391448 0  1 0.08041996484521211 0  1 0.07394008421771697 0  1 0.06666666567302955 0  1 0.05850252932209174 0  1 0.04933859630113544 0  1 0.03905242821848202 0  1 0.02750659386753798 0  1 0.01454683679239736 0  1.015625 0 0  1.03125 0 0  1.046875 0 0  1.0625 0 0  1.078125 0 0  1.09375 0 0  1.109375 0 0  1.125 0 0  1.140625 0 0  1.15625 0 0  1.171875 0 0  1.1875 0 0  1.203125 0 0  1.21875 0 0  1.234375 0 0  1.25 0 0  1.265625 0 0  1.28125 0 0  1.296875 0 0  1.3125 0 0  1.328125 0 0  1.34375 0 0  1.359375 0 0  1.375 0 0  1.390625 0 0  1.40625 0 0  1.421875 0 0  1.4375 0 0  1.453125 0 0  1.46875 0 0  1.484375 0 0  1.515920751924515 0 0  1.531989369316721 0 0  1.54820720925872 0 0  1.564575665560501 0 0  1.581096138674279 0 0  1.597770029901263 0 0  1.614598783332311 0 0  1.631583831055205 0 0  1.64872661129721 0 0  1.666028606716533 0 0  1.683491276608443 0 0  1.701116134125304 0 0  1.718904673324128 0 0  1.736858414799339 0 0  1.754978895814663 0 0  1.773267661782904 0 0  1.791726281103402 0 0  1.810356325314689 0 0  1.8291593848892 0 0  1.848137076690385 0 0  1.867291007717254 0 0  1.886622833871288 0 0  1.90613418642363 0 0  1.925826753299799 0 0  1.945702199101513 0 0  1.96576223584749 0 0  1.986008569283268 0 0  2.006442931928877 0 0  2.02706707547783 0 0  2.047882750887917 0 0  2.06889175187935 0 0  2.090095860038271 0 0  2.111496891648636 0 0  2.133096679109554 0 0  2.154897066851056 0 0  2.176899916687499 0 0  2.199107102752146 0 0  2.22152053937028 0 0  2.244142122958061 0 0  2.266973806444078 0 0  2.290017523268154 0 0  2.313275249499252 0 0  2.336748971745516 0 0  2.360440702338606 0 0  2.384352453384031 0 0  2.408486280477412 0 0  2.432844240041185 0 0  2.457428414757088 0 0  2.482240901796653 0 0  2.507283830121838 0 0  2.532559332080812 0 0  2.558069568787417 0 0  2.583816724966441 0 0  2.60980299606584 0 0  2.636030600971886 0 0  2.662501790984011 0 0  2.689218818279327 0 0  2.716183964547616 0 0  2.743399548861297 0 0  2.77086788244719 0 0  2.798591312896326 0 0  2.826572223178268 0 0  2.854812990138617 0 0  2.883316031690714 0 0  2.912083780657189 0 0  2.941118704633482 0 0  2.970423276998917 0 0  3 0.02999999999994495 0  3 0.05999999999987042 0  3 0.089999999999783 0  3 0.119999999999701 0  3 0.149999999999619 0  3 0.179999999999692 0  3 0.2099999999997737 0  3 0.2399999999998511 0  3 0.2699999999999185 0  2.970138294777171 0.3 0  2.940375666438236 0.3 0  2.910711782853056 0.3 0  2.881146331305122 0.3 0  2.851678975030285 0.3 0  2.822309388626621 0.3 0  2.793037250095074 0.3 0  2.76386223529133 0.3 0  2.734784017903872 0.3 0  2.705802289276642 0.3 0  2.676916713794697 0.3 0  2.648126987654635 0.3 0  2.619432780406184 0.3 0  2.590833779385199 0.3 0  2.562329669847737 0.3 0  2.533920134950189 0.3 0  2.505604855727852 0.3 0  2.477383539822502 0.3 0  2.449255847639465 0.3 0  2.421221492569094 0.3 0  2.393280152486815 0.3 0  2.36543151914496 0.3 0  2.337675285481809 0.3 0  2.310011142385583 0.3 0  2.282438797441587 0.3 0  2.254957931061538 0.3 0  2.227568248063605 0.3 0  2.200269436651085 0.3 0  2.173061204949961 0.3 0  2.145943251515011 0.3 0  2.118915272469994 0.3 0  2.091976978084957 0.3 0  2.065128060700849 0.3 0  2.038368218849433 0.3 0  2.01169717777258 0.3 0  1.985114624111908 0.3 0  1.958620267850966 0.3 0  1.93221382054972 0.3 0  1.905894991850698 0.3 0  1.879663489459713 0.3 0  1.853519019126419 0.3 0  1.827461291053897 0.3 0  1.801490031354372 0.3 0  1.775604937580312 0.3 0  1.74980572560258 0.3 0  1.724092118631866 0.3 0  1.698463829173586 0.3 0  1.672920575782554 0.3 0  1.647462076974085 0.3 0  1.622088043536933 0.3 0  1.5967981978949 0.3 0  1.571592267767068 0.3 0  1.546469970305736 0.3 0  1.521431023814044 0.3 0  1.496475156230927 0.3 0  1.471602093687753 0.3 0  1.446811560490646 0.3 0  1.422103279101731 0.3 0  1.397476971708191 0.3 0  1.37293238939876 0.3 0  1.348469231419202 0.3 0  1.324087248732772 0.3 0  1.299786165921677 0.3 0  1.275565710847046 0.3 0  1.251425617644257 0.3 0  1.227365618676339 0.3 0  1.203385446174014 0.3 0  1.179484853067473 0.3 0  1.155663548773374 0.3 0  1.131921292279077 0.3 0  1.108257802159295 0.3 0  1.084672829009693 0.3 0  1.061166115303374 0.3 0  1.037737392995421 0.3 0  1.01438640299116 0.3 0  0.991112899770314 0.3 0  0.9679166155523955 0.3 0  0.944797284182564 0.3 0  0.921754678526042 0.3 0  0.8987885143602501 0.3 0  0.8758985548820624 0.3 0  0.8530845484099929 0.3 0  0.8303462351786988 0.3 0  0.8076833651172373 0.3 0  0.7850956864865304 0.3 0  0.7625829601354557 0.3 0  0.7401449314598274 0.3 0  0.717781337993959 0.3 0  0.6954919649675473 0.3 0  0.6732765357561226 0.3 0  0.6511348120768439 0.3 0  0.6290665642016573 0.3 0  0.6070715355430467 0.3 0  0.5851494825775325 0.3 0  0.5633001690203812 0.3 0  0.5415233562273221 0.3 0  0.5198187909431873 0.3 0  0.4981862401387795 0.3 0  0.4766254686134248 0.3 0  0.4551362360485234 0.3 0  0.4337182975262159 0.3 0  0.4123714223228037 0.3 0  0.3910953802377493 0.3 0  0.3698899313205595 0.3 0  0.3487548463710963 0.3 0  0.3276898864081783 0.3 0  0.3066948129116018 0.3 0  0.2857694003037476 0.3 0  0.2649134227095047 0.3 0  0.2441266417321288 0.3 0  0.2234088223399122 0.3 0  0.2027597568977288 0.3 0  0.1821792020676698 0.3 0  0.1616669305402443 0.3 0  0.1412227158799362 0.3 0  0.12084633013886 0.3 0  0.1005375673448281 0.3 0  0.08029618164595353 0.3 0  0.06012194778526769 0.3 0  0.04001466495039718 0.3 0  0.01997408913631205 0.3 0  0 0.2800000000000553 0  0 0.2600000000001105 0  0 0.2400000000001658 0  0 0.2200000000002211 0  0 0.2000000000002764 0  0 0.1800000000002244 0  0 0.1600000000001691 0  0 0.140000000000115 0  0 0.1200000000000564 0  1.13346801534201 0.01255848438672509 0  1.003577645172735 0.09351054173913405 0  0.9777559943702486 0.1034978156913738 0  0.9524533750752109 0.1040889939962738 0  0.9296242411226409 0.1041520033606139 0  0.9046110503652111 0.104409422380137 0  0.8777709649694228 0.1053360318797398 0  0.8483859145648608 0.1061007868330701 0  0.8162363822948977 0.1052777104363292 0  0.7893110024210437 0.1060761643971561 0  0.7587949382612539 0.1067265405088633 0  0.7280603867732535 0.1069398153264939 0  0.6947001989413015 0.1075609887579097 0  0.6590363283767549 0.1076715322596598 0  0.6210028614493155 0.1072970410408442 0  1.1953125 0.01353164693413185 0  1.258193991486058 0.01269648635163345 0  1.3201967268638 0.01407907077719561 0  1.383538555392096 0.01434101079053473 0  1.445312500000001 0.01303671693628424 0  1.508925448095738 0.01398525724792267 0  0.9939176689634008 0.1034638089837981 0  1.120967497222226 0.2796788492172345 0  1.572835902117391 0.01424132418857359 0  1.637573277451887 0.01212536916586023 0  1.709730776795181 0.01466855431023635 0  1.005631976950563 0.07074019818158772 0  1.784944696816299 0.01454708406461822 0  0.5805605730631225 0.1101465090472147 0  1.855621181165637 0.01550931272897607 0  0.5366111276616774 0.1096761308243709 0  1.935200147913231 0.01760344159641829 0  1.214922267975168 0.2799787705802257 0  1.31178773425331 0.2792
[...]
<PointData  Scalars="pressure"> 
<DataArray  type="Float64"  Name="pressure"  format="ascii">2.1823637956315700e+01  2.3047450316965985e+01  2.2256561805795265e+01  2.0613461925281481e+01  1.5993590710902094e+01  0.0000000000000000e+00  0.0000000000000000e+00  2.1823638532930275e+01  2.1817711839201348e+01  2.1811881297107739e+01  2.1806144786958829e+01  2.1800500800993419e+01  2.1794947840092103e+01  2.1789484458085010e+01  2.1784109210158910e+01  2.1778820693709335e+01  2.1773617531457280e+01  2.1768498339134531e+01  2.1763461842456074e+01  2.1758506728498606e+01  2.1753631705316526e+01  2.1748835559897969e+01  2.1744117148124776e+01  2.1739475186035392e+01  2.1734908620918670e+01  2.1730416347765850e+01  2.1725997289357657e+01  2.1721650523999223e+01  2.1717375325462225e+01  2.1713170309576636e+01  2.1709035043490069e+01  2.1704968545146631e+01  2.1700970154356142e+01  2.1697040311283597e+01  2.1693177077644879e+01  2.1689380866379519e+01  2.1685651468784762e+01  2.1681988754953959e+01  2.1678392622488641e+01  2.1674863412911694e+01  2.1671402350135640e+01  2.1668009513703531e+01  2.1664684811293693e+01  2.1661431257945043e+01  2.1658254048204476e+01  2.1655144242020111e+01  2.1652109925727562e+01  2.1649162148535883e+01  2.1646282803161885e+01  2.1643497415014462e+01  2.1640812225082058e+01  2.1638198450489160e+01  2.1635694775992366e+01  2.1633298870991659e+01  2.1631012284212090e+01  2.1628839516174718e+01  2.1626798382450620e+01  2.1624891578707118e+01  2.1623125009277150e+01  2.1621522560549955e+01  2.1620090522815524e+01  2.1618833041412554e+01  2.1617777707656138e+01  2.1616925825508250e+01  2.1616308005657107e+01  2.1615965903525819e+01  2.1615792926544334e+01  2.1616012905413712e+01  2.1616528628247675e+01  2.1617357241586934e+01  2.1618568031592233e+01  2.1620179553364771e+01  2.1622147622485659e+01  2.1624692162745703e+01  2.1627716780951612e+01  2.1631270219990860e+01  2.1635360656396237e+01  2.1640131630401012e+01  2.1645683219422118e+01  2.1651854180437315e+01  2.1659182896642783e+01  2.1666887715085018e+01  2.1675892458242778e+01  2.1685966363960532e+01  2.1697132998788764e+01  2.1709683341616184e+01  2.1723644673471931e+01  2.1739118316248582e+01  2.1756158382454096e+01  2.1775348999122230e+01  2.1796559858066281e+01  2.1820152162327609e+01  2.1846399239948255e+01  2.1875711130671363e+01  2.1908622785024761e+01  2.1945521823767223e+01  2.1987088395468927e+01  2.2034250667301496e+01  2.2087799887433981e+01  2.2149344599701362e+01  2.2221402287418101e+01  2.2305542112280214e+01  2.2406529825634752e+01  2.2531284229273009e+01  2.2690610535334962e+01  2.2900430376522724e+01  2.3995513021126587e+01  2.4684171306837101e+01  2.4629622600001028e+01  2.3947890872759352e+01  2.1611551304256320e+01  2.1498375110126783e+01  2.1336339824317797e+01  2.1198982290509246e+01  2.1078944098587471e+01  2.0971852029229776e+01  2.0877933180269157e+01  2.0791828176717615e+01  2.0719154339715132e+01  2.0661318251707016e+01  2.0623768460846378e+01  2.0598678340641147e+01  2.0549717052379101e+01  2.0472529820672204e+01  2.0371409276870985e+01  2.0248741793302720e+01  2.0114283367725111e+01  1.9974859231044181e+01  1.9826236398083697e+01  1.9669628862498506e+01  1.9509574288307824e+01  1.9346717785406735e+01  1.9181234698465314e+01  1.9014401748738827e+01  1.8846199399803822e+01  1.8678230901269590e+01  1.8510570860266405e+01  1.8344180048816764e+01  1.8178258858957573e+01  1.8014238371640925e+01  1.7857884537676103e+01  1.7694557333051939e+01  1.7541774033717999e+01  1.7384952464630555e+01  1.7230549254122455e+01  1.7073729627584921e+01  1.6929238045257314e+01  1.6772040790988171e+01  1.6619311704989638e+01  1.6464769680052662e+01  1.6309290215502443e+01  1.6152170071545935e+01  1.5830593516585553e+01  1.5666454569978363e+01  1.5498798401682560e+01  1.5329456556172047e+01  1.5159764944151798e+01  1.4980308348449192e+01  1.4801736701071457e+01  1.4633741871146398e+01  1.4457665323649193e+01  1.4270456340550501e+01  1.4087938740664212e+01  1.3903879295532956e+01  1.3716271668780609e+01  1.3526513893734977e+01  1.3335223984253243e+01  1.3140320205218115e+01  1.2943509558641120e+01  1.2751364359494820e+01  1.2545439790469405e+01  1.2349495885385249e+01  1.2144625132409670e+01  1.1937196047628740e+01  1.1730062906204507e+01  1.1518975677144571e+01  1.1307406796265928e+01  1.1085499769651523e+01  1.0871134288895467e+01  1.0652143895220396e+01  1.0432079607140174e+01  1.0217290495909003e+01  9.9932245060285219e+00  9.7651629638701642e+00  9.5355764657773054e+00  9.3066611761443330e+00  9.0739523903510406e+00  8.8398655026019277e+00  8.6024014906570869e+00  8.3630719221383210e+00  8.1215190734228173e+00  7.8770632074148930e+00  7.6299224121101412e+00  7.3806875074772043e+00  7.1278142722377433e+00  6.8743725950560348e+00  6.6186479578416071e+00  6.3574088843118712e+00  6.0946741256609807e+00  5.8392096267950340e+00  5.5642619458700002e+00  5.3033235889597830e+00  5.0238061132799885e+00  4.7586402035777997e+00  4.4748264809196430e+00  4.1938088483215168e+00  3.9216399695341044e+00  3.6288223017408239e+00  3.3502562465785415e+00  3.0536688074633966e+00  2.7590237792724324e+00  2.4613508000861719e+00  2.1760264547209656e+00  1.8647309904608100e+00  1.5640219079020725e+00  1.2603568799659441e+00  9.3939856498764429e-01  6.4010573134799265e-01  3.1650745283968618e-01  0.0000000000000000e+00  0.0000000000000000e+00  0.0000000000000000e+00  0.0000000000000000e+00  0.0000000000000000e+00  0.0000000000000000e+00  0.0000000000000000e+00  0.0000000000000000e+00  0.0000000000000000e+00  3.1606259541916104e-01  6.3509917694129903e-01  9.6480367065007078e-01  1.2820236922077588e+00  1.5985117429526072e+00  1.9134351652312700e+00  2.2284679690155689e+00  2.5426736886882964e+00  2.8553992458435844e+00  3.1673050043591537e+00  3.4777713004770887e+00  3.7874124362533004e+00  4.0954891940120337e+00  4.4024558670607474e+00  4.7083019763868945e+00  5.0142455718320589e+00  5.3187674359310977e+00  5.6210670748239782e+00  5.9220131705344192e+00  6.2218334297045548e+00  6.5207294924778356e+00  6.8184841024165719e+00  7.1159577675162007e+00  7.4117662504697304e+00  7.7080581992669988e+00  8.0018757021368465e+00  8.2967400915976359e+00  8.5866035246603136e+00  8.8754619026560171e+00  9.1639817511768520e+00  9.4510609936165402e+00  9.7401397740086804e+00  1.0031384206240098e+01  1.0312979184624714e+01  1.0593106802858291e+01  1.0867541025347796e+01  1.1155253050358663e+01  1.1431878910484331e+01  1.1708212918672437e+01  1.1990495484937878e+01  1.2255360677381038e+01  1.2532973950027264e+01  1.2806559968448884e+01  1.3078543979744126e+01  1.3349356007491345e+01  1.3619280363701705e+01  1.3882638200833926e+01  1.4143704136482885e+01  1.4414941089213169e+01  1.4679539620414159e+01  1.4942484135519896e+01  1.5203970688287198e+01  1.5463818048608223e+01  1.5724111042370328e+01  1.5983399964697503e+01  1.6241352209476631e+01  1.6500545596473252e+01  1.6766865953277346e+01  1.7021149632372829e+01  1.7276274775974663e+01  1.7534012320862875e+01  1.7789090562712911e+01  1.8046491145253210e+01  1.8299639778280145e+01  1.8552110011422819e+01  1.8804081684258552e+01  1.9054026062613577e+01  1.9301554438533138e+01  1.9547382135409769e+01  1.9787471788081049e+01  2.0022823299088433e+01  2.0246630125527844e+01  2.0458591227927023e+01  2.0660687417741759e+01  2.0836554698451913e+01  2.0992498997913490e+01  2.1126590091915425e+01  2.1235573257223372e+01  2.1324688560582032e+01  2.1392781956058819e+01  2.1443631957757226e+01  2.1484259660711931e+01  2.1515275810026754e+01  2.1539864361976321e+01  2.1558974165100160e+01  2.1574313866931142e+01  2.1587277347279759e+01  2.1598251171371111e+01  2.1607917465180321e+01  2.1616694346932654e+01  2.1624789723412796e+01  2.1632471024314004e+01  2.1639799673435494e+01  2.1646880913598142e+01  2.1653803949318753e+01  2.1660590513399214e+01  2.1667275883697688e+01  2.1673887773660418e+01  2.1680445509102054e+01  2.1686953919123805e+01  2.1693422292297821e+01  2.1699856824371313e+01  2.1706260272408546e+01  2.1712636913913734e+01  2.1718988058797336e+01  2.1725314804035804e+01  2.1731618559540898e+01  2.1737899733693641e+01  2.1744159083460250e+01  2.1750396839438974e+01  2.1756613373107871e+01  2.1762808909602885e+01  2.1768983632489771e+01  2.1775137693652908e+01  2.1781271214504184e+01  2.1787384308089926e+01  2.1793477047590006e+01  2.1799549548694213e+01  2.1805601877157738e+01  2.1811634101296679e+01  2.1817646297595854e+01  2.1823638537563237e+01  2.1823638528043237e+01  2.1823638474158113e+01  2.1823638374484357e+01  2.1823638245678247e+01  2.1823638116589386e+01  2.1823638015870909e+01  2.1823637961616733e+01  2.1823637951427884e+01  1.9742239543295408e+01  2.1562996781495976e+01  2.2989929563877460e+01  2.2177914576415947e+01  2.1925607837318683e+01  2.1785105838390752e+01  2.1703516588768487e+01  2.1655413778203886e+01  2.1629346391021709e+01  2.1619353352992071e+01  2.1615789364278228e+01  2.1617271987589092e+01  2.1622268662749502e+01  2.1629894241584520e+01  2.1639488024069006e+01  1.9098895826217905e+01  1.8424015876798475e+01  1.7776606445276549e+01  1.7145911462092680e+01  1.6541363499087407e+01  1.5901888104988485e+01  2.3592848995503974e+01  1.9898965835383450e+01  1.5242581405560614e+01  1.4569161151811352e+01  1.3812498356006595e+01  2.1022713069113678e+01  1.3016787049414768e+01  2.1650583573005274e+01  1.2267338960853207e+01  2.1663200629791881e+01  1.1417488769265928e+01  1.8935211676451775e+01  1.7920773929727812e+01  1.0505909590975662e+01  1.6896126047054750e+01  2.1676626607239381e+01  1.5594885439922367e+01  9.6618186595291817e+00  2.1691276806729160e+01  2.0181100541281179e+01  8.7203151688610223e+00  1.4280995230929694e+01  2.0584948988627424e+01  2.1706571531309706e+01  7.7533769609064169e+00  1.2670201692727622e+01  2.1724010420266339e+01  1.1861855067448451e+01  6.7342394776967032e+00  1.0992928537791231e+01  2.1741274324743809e+01  2.1070925088614981e+01  5.7171843923403864e+00  1.0157759751448641e+01  2.1362874709362895e+01  9.2835398802152636e+00  4.6187099744316846e+00  2.1502698949781706e+01  2.1761459993557015e+01  2.1775472236972522e+01  1.3482231757337580e+01  3.7744411454001141e+00  2.8734204315026513e+00  8.4280627292735524e+00  2.1567210879025914e+01  7.2425628398877766e+00  2.2450787092514261e+01  2.1611944381382230e+01  6.3687035760005255e+00  2.1792920966005681e+01  2.1636179360073310e+01  2.0187269571168089e+00  5.1721232749482837e+00  2.1657353045091835e+01  2.1683875800517757e+01  4.2501639654787438e+00  2.1715814138679594e+01  3.3234116771070275e+00  2.1734815857826241e+01  2.1753611212896171e+01  2.3877345416776703e+00  2.1785222226938913e+01  2.9359954707022878e-01  2.1818057701130751e+01  2.0744210277687596e+01  1.4667872371498092e+00  1.0825927101189519e+00  2.1803026726112073e+01  2.1259453631402504e+01  2.0436879613031351e+01  1.9426335829129513e+01  2.1593381840791007e+01  2.1670089807774655e+01  2.1696307028908407e+01  2.1803374341193845e+01  1.5097342900231075e+01  1.6362373717260802e+01  1.7403503775324982e+01  1.8425879910885527e+01  2.1751527958130506e+01  7.8533451730381767e+00  2.1732375118711715e+01  2.1765858813072803e+01  5.7723744919609592e+00  5.1711215276656031e+00  2.1714714445988729e+01  6.1997403431600411e+00  7.2546719573635343e+00  2.1699251907688836e+01  8.2418009840105153e+00  9.1949242891465754e+00  1.0132995841539346e+01  1.0953261687383133e+01  1.5581841631331402e+01  2.1683817037006737e+01  1.1850488405841048e+01  1.2647039634158116e+01  2.1669719155207257e+01  1.3413556940116639e+01  1.4179520027221589e+01  1.4886824980150420e+01  2.4784271039588557e-01  2.1656346530054389e+01  2.1645286040930028e+01  2.1818399958182052e+01  2.1634730115507896e+01  2.1625803631781601e+01  2.1619401435753250e+01  2.1616010474212811e+01  2.1616831054076474e+01  2.1623136513649829e+01  1.9418987769742735e+01  2.1642663470536416e+01  2.1680536988513715e+01  2.1747063242667256e+01  1.8763371624711461e+01  2.1861163477286350e+01  1.7466977229328567e+01  1.8081413311673501e+01  1.6870701655975257e+01  1.6230005925988042e+01  2.2058568645868533e+01  2.3830930831504872e+01  2.9583531216631487e-01  2.1817898807805356e+01  7.9676301741785516e-01  2.0583290298188025e+01  2.1818653209990355e+01  2.5080537322308599e-01  2.1814542468038269e+01  2.0522654377839508e+01  2.0504081910493774e+01  2.0418748688580227e+01  2.0492114928137003e+01  2.0404062177352717e+01  2.0483647851137956e+01  2.0376928258503689e+01  2.0470983010674221e+01  2.0353821341220264e+01  2.0455290018286593e+01  2.0335326362467292e+01  2.0434911290298992e+01  2.0302809633223283e+01  2.0402902101047609e+01  2.0260863264156502e+01  2.0359594766604641e+01  2.0208135168823929e+01  2.0308433890086928e+01  2.0149864812587456e+01  2.0245804382098925e+01  2.0074742717185430e+01  2.0425262812955651e+01  1.9974210675624555e+01  1.9902915609948376e+01  2.0348455031995005e+01  2.0540820675897148e+01  1.9807252092778700e+01  1.9728929536935777e+01  1.9629244780453071e+01  1.9550583391610608e+01  1.9445676716636132e+01  1.9370544731491613e+01  1.9258558675824304e+01  1.9179571683289808e+01  1.9064621576114966e+01  1.8979643255594794e+01  1.8864085627694795e+01  1.8776582066487229e+01  1.8661775895597668e+01  1.8575188237903205e+01  1.8456501738125194e+01  1.8372043552664213e+01  1.8252208756384707e+01  1.8170238720370111e+01  1.8048980719026755e+01  1.7968730780300245e+01  1.7848195999429553e+01  1.7771063804494553e+01  1.7652055059668179e+01  1.7575500922687848e+01  1.7461422724809413e+01  1.7383018872334642e+01  1.7263070859305000e+01  2.0447524911465567e+01  2.0630719808086752e+01  1.7193142108323499e+01  1.7074148684846360e+01  1.6999544325324990e+01  1.6893061369108874e+01  1.6808568701568806e+01  1.6702186844735106e+01  1.6613427508474846e+01  1.6508042850292810e+01  1.9815832093389986e+01  1.6418412655207877e+01  1.6309308380692169e+01  1.6203213784430137e+01  1.6103349611489712e+01  1.6005298973006898e+01  1.5896869562694077e+01  2.0535916117750187e+01  2.0739354354653738e+01  2.0540695389402568e+01  1.5795041126999687e+01  1.5684756753228763e+01  1.5582097836605696e+01  1.5469919533488010e+01  1.5367501538894247e+01  1.5253604860931238e+01  2.0740582159634759e+01  1.5150533838999703e+01  1.5034620309627993e+01  1.9305027355942670e+01  1.4930745913979990e+01  1.4814502776453869e+01  1.4710885067320458e+01  1.4593387087565517e+01  1.4488739987762200e+01  1.4371054200494546e+01  2.0163022126752843e+01  1.8693018546688723e+01  1.4265131403270068e+01  1.4146907792077831e+01  2.0616344039053125e+01  2.0797017083169813e+01  2.0433209824289882e+01  1.8082417965423787e+01  1.4038736652062271e+01  1.3916340084664235e+01  1.3810114801500649e+01  1.3684487269777797e+01  1.3579760427964645e+01  1.3456659942057289e+01  1.5784953717861427e+01  1.4019235494025418e+01  1.5138904417321605e+01  1.6402943968409428e+01  1.3349431876647712e+01  1.3227337389369382e+01  1.3335511558533927e+01  1.3107835907806090e+01  1.2996666234513118e+01  1.2880025920344329e+01  1.2764755459103105e+01  1.2645542041715517e+01  1.2530163336608169e+01  1.2406018005765057e+01  1.2293629151812697e+01  1.2167723552227310e+01  1.2055218111189728e+01  1.1928044276952040e+01  1.1815572429748991e+01  1.1686610193833003e+01  1.1572978773594754e+01  1.1443219349662449e+01  1.1328861868707621e+01  1.1196970812708479e+01  1.1082861271414259e+01  1.0949866546567893e+01  1.0835421327585143e+01  1.0700434075833284e+01  1.6967433133295600e+01  1.7506286827070479e+01  1.0585863276849928e+01  1.0450224437672146e+01  1.0334173299856042e+01  1.0196573802029786e+01  1.9341180751259937e+01  1.7932684153654719e+01  1.0077870172463284e+01  9.9411386871725593e+00  1.8545794445189220e+01  1.6935063105979236e+01  2.0683509586803186e+01  2.0857875273567501e+01  2.0995725803403634e+01  2.1028717565035681e+01  2.1169137536916132e+01  2.1179496033848864e+01  2.1345685175504439e+01  2.1314023665167792e+01  2.1455833912872539e+01  2.1417017657503926e+01  2.1556551256772941e+01  2.1496805595241494e+01  2.1612835713579859e+01  2.1550745842928716e+01  2.1647092270319735e+01  2.1587570096095018e+01  2.1663369074508005e+01  2.1608099084194251e+01  2.1668077157196354e+01  2.1618602326575783e+01  2.1665497788145242e+01  2.1622692815953332e+01  2.1659636146041549e+01  2.1623091725667386e+01  2.1652183260150366e+01  2.1621602107052347e+01  2.1643446956824416e+01  2.1617252381536716e+01  2.1595023399838947e+01  2.1597103675104073e+01  2.1615247283251119e+01  2.1598544838921082e+01  2.1614741991201470e+01  2.1599763594150811e+01  2.1612264960755677e+01  2.1600277633090823e+01  2.1487800267591837e+01  2.1573379911038970e+01  2.1578108555232152e+01  2.1610530772725649e+01  2.1600870512970690e+01  2.1589946480664050e+01  2.1592739686742963e+01  2.1601716704262145e+01  2.1595633674624096e+01  2.1602708775517971e+01  2.1598059085415283e+01  2.1603854766292415e+01  2.1600150384542609e+01  2.1587601389761598e+01  2.1322836090143529e+01  2.1702096438823350e+01  2.1605185205510463e+01  2.1602588017210920e+01  2.1597439616590513e+01  2.1600689257997601e+01  2.1605170154589164e+01  2.1604080253010157e+01  2.1607823246440059e+01  2.1607337515300742e+01  2.1743047044005845e+01  2.1599969985969633e+01  2.1610552004160940e+01  2.1610587340598794e+01  2.1719248520181100e+01  2.1613290914059501e+01  2.1613824005621591e+01  2.1610815362178247e+01  2.1614714438359862e+01  2.1617232113626244e+01  2.1618588191658858e+01  2.1616024791631919e+01  2.1620216044242927e+01  2.1622430506888733e+01  2.1624311968664436e+01  2.1626266963370067e+01  2.1628441068152380e+01  2.1626464553510782e+01  2.1630762211417998e+01  2.1632549000702443e+01  2.1634986573019258e+01  2.1636553546852568e+01  2.1639129665873980e+01  2.1056653416709430e+01  2.1632217159091198e+01  2.1686032922571627e+01  2.1640474618199857e+01  2.1643209967429510e+01  2.1641854831938559e+01  2.1646167207505044e+01  2.1647410611013772e+01  2.1650443266768196e+01  2.1644832865307027e+01  9.8221257334112728e+00  9.6857566890107964e+00  9.5673311472178941e+00  9.4265011519523085e+00  9.3080150539556232e+00  9.1652493659820440e+00  2.1608840595645923e+01  1.5906743011398314e+01  2.0570900864423365e+01  2.1651630093153681e+01  2.1654650707400179e+01  2.1621916690505287e+01  1.2041202161302230e+01  1.0821788173261897e+01  1.3217787997597428e+01  9.0461066483102019e+00  8.9042778534069900e+00  9.0234624694368240e+00  8.7640289881342319e+00  8.6423351847865977e+00  8.5019587670981842e+00  8.3788763663278480e+00  8.2374009640888204e+00  8.1136979681186752e+00  7.9749484544440241e+00  7.8472350350668494e+00  7.7077447115795907e+00  7.5785803817851720e+00  7.4348479408606867e+00  7.3076972582164235e+00  7.1625084641106991e+00  7.0348472518082454e+00  6.8886573522484094e+00  6.7640923618312661e+00  6.6135398099958840e+00  6.4882935211846879e+00  6.3360760535001575e+00  6.2064349510638319e+00  6.0558864237992180e+00  5.9256557090031423e+00  5.7741170479625730e+00  5.6431024705574941e+00  5.4904684546747173e+00  5.3579279155709463e+00  5.2047459288824900e+00  5.0622754888564474e+00  4.9156466322973209e+00  9.7981012152437579e+00  2.1628768293931188e+01  2.1609140519230163e+01  2.1655894255630763e+01  2.1658948635745478e+01  2.1657712869927934e+01  2.1662200619801673e+01  2.1660927868528130e+01  2.1665549769185095e+01  2.1666654547907164e+01  2.1670047696483660e+01  2.1671234288827428e+01  2.1674622007222652e+01  2.1673541127605315e+01  2.1678118264909930e+01  2.1679029297735273e+01  2.1682646215958155e+01  2.1683519809552422e+01  2.1687183143809971e+01  2.1686300026898330e+01  2.1690924632229489e+01  2.1691752545023842e+01  2.1695521570838217e+01  2.0743176439525989e+01  2.1608573407235102e+01  4.7838392428378116e+00  4.6275620002672007e+00  4.4968024712893797e+00  4.3368985139348384e+00  4.2112703959884907e+00  4.0428848484726174e+00  1.5255910112366458e+01  1.4583284602224188e+01  2.1696465068411154e+01  2.1700194463240326e+01  2.1699344209052747e+01  2.1704009227699871e+01  2.170472389