<?xml version="1.0"?>
<VTKFile type="UnstructuredGrid"  version="0.1"  >
<UnstructuredGrid>
<Piece  NumberOfPoints="2945" NumberOfCells="5525">
<Points>
<DataArray  type="Float64"  NumberOfComponents="3"  format="ascii">0 0.1 0  0.95 0.1 0  1 0.1 0  1 0 0  1.5 0 0  3 0 0  3 0.3 0  0 0.3 0  0.0197424558707114 0.1 0  0.03915669042224804 0.1 0  0.05824816022699029 0.1 0  0.07702223050332387 0.1 0  0.09548417327144595 0.1 0  0.1136391897583987 0.1 0  0.1314923700144587 0.1 0  0.1490487330862866 0.1 0  0.1663132263225292 0.1 0  0.1832906857273058 0.1 0  0.1999858946008978 0.1 0  0.216403545770297 0.1 0  0.2325482404045023 0.1 0  0.2484245348165176 0.1 0  0.2640368740372501 0.1 0  0.2793896589642241 0.1 0  0.2944872056237027 0.1 0  0.3093337469555254 0.1 0  0.3239334613687816 0.1 0  0.3382904528528069 0.1 0  0.3524087553122972 0.1 0  0.3662923366391824 0.1 0  0.3799451014768399 0.1 0  0.393370886920506 0.1 0  0.4065734648871676 0.1 0  0.419556546320114 0.1 0  0.4323237821343415 0.1 0  0.4448787573056132 0.1 0  0.4572250047274954 0.1 0  0.4693659926332938 0.1 0  0.4813051343276231 0.1 0  0.4930457849308193 0.1 0  0.5045912455271677 0.1 0  0.5159447600209797 0.1 0  0.5271095174127136 0.1 0  0.5380886618453393 0.1 0  0.5488852725463512 0.1 0  0.5595023868312478 0.1 0  0.5699429904313016 0.1 0  0.5802100167387366 0.1 0  0.5903063508274641 0.1 0  0.6002348329443006 0.1 0  0.6099982499579832 0.1 0  0.6195993483501782 0.1 0  0.6290408246013842 0.1 0  0.6383253354321616 0.1 0  0.6474554910757137 0.1 0  0.6564338522440513 0.1 0  0.6652629482939147 0.1 0  0.6739452579188948 0.1 0  0.6824832240165607 0.1 0  0.6908792415022103 0.1 0  0.6991356755989045 0.1 0  0.7072548438546967 0.1 0  0.7152390281534421 0.1 0  0.7230904746196039 0.1 0  0.7308113906759266 0.1 0  0.7384039435269326 0.1 0  0.7458702676581656 0.1 0  0.7532124631720397 0.1 0  0.7604325921167397 0.1 0  0.7675326856666862 0.1 0  0.7745147374421916 0.1 0  0.7813807123989068 0.1 0  0.7881325374362798 0.1 0  0.7947721131625659 0.1 0  0.8013013031866276 0.1 0  0.8077219449067021 0.1 0  0.8140358419942376 0.1 0  0.8202447685401882 0.1 0  0.8263504700910924 0.1 0  0.8323546643163114 0.1 0  0.8382590362474568 0.1 0  0.8440652473522128 0.1 0  0.8497749272799842 0.1 0  0.8553896837646281 0.1 0  0.8609110933285474 0.1 0  0.866340708855119 0.1 0  0.8716800550492284 0.1 0  0.8769306339052932 0.1 0  0.8820939206038667 0.1 0  0.8871713655604893 0.1 0  0.8921643975475726 0.1 0  0.8970744196575535 0.1 0  0.9019028106970642 0.1 0  0.9066509291259979 0.1 0  0.9113201098984042 0.1 0  0.9159116634553873 0.1 0  0.9204268818729691 0.1 0  0.9248670319440222 0.1 0  0.9292333656649013 0.1 0  0.9335271075812669 0.1 0  0.9377494640511216 0.1 0  0.941901623463222 0.1 0  0.9459847526686701 0.1 0  0.9538461538461205 0.1 0  0.9576923076922409 0.1 0  0.9615384615384381 0.1 0  0.9653846153846337 0.1 0  0.9692307692307542 0.1 0  0.9730769230768747 0.1 0  0.9769230769229952 0.1 0  0.9807692307691157 0.1 0  0.9846153846152361 0.1 0  0.9884615384614317 0.1 0  0.9923076923076356 0.1 0  0.9961538461538395 0.1 0  1 0.09591793123533533 0  1 0.09133596463859224 0  1 0.08619288104391448 0  1 0.08041996484521211 0  1 0.07394008421771697 0  1 0.06666666567302955 0  1 0.05850252932209174 0  1 0.04933859630113544 0  1 0.03905242821848202 0  1 0.02750659386753798 0  1 0.01454683679239736 0  1.015625 0 0  1.03125 0 0  1.046875 0 0  1.0625 0 0  1.078125 0 0  1.09375 0 0  1.109375 0 0  1.125 0 0  1.140625 0 0  1.15625 0 0  1.171875 0 0  1.1875 0 0  1.203125 0 0  1.21875 0 0  1.234375 0 0  1.25 0 0  1.265625 0 0  1.28125 0 0  1.296875 0 0  1.3125 0 0  1.328125 0 0  1.34375 0 0  1.359375 0 0  1.375 0 0  1.390625 0 0  1.40625 0 0  1.421875 0 0  1.4375 0 0  1.453125 0 0  1.46875 0 0  1.484375 0 0  1.515920751924515 0 0  1.531989369316721 0 0  1.54820720925872 0 0  1.564575665560501 0 0  1.581096138674279 0 0  1.597770029901263 0 0  1.614598783332311 0 0  1.631583831055205 0 0  1.64872661129721 0 0  1.666028606716533 0 0  1.683491276608443 0 0  1.701116134125304 0 0  1.718904673324128 0 0  1.736858414799339 0 0  1.754978895814663 0 0  1.773267661782904 0 0  1.791726281103402 0 0  1.810356325314689 0 0  1.8291593848892 0 0  1.848137076690385 0 0  1.867291007717254 0 0  1.886622833871288 0 0  1.90613418642363 0 0  1.925826753299799 0 0  1.945702199101513 0 0  1.96576223584749 0 0  1.986008569283268 0 0  2.006442931928877 0 0  2.02706707547783 0 0  2.047882750887917 0 0  2.06889175187935 0 0  2.090095860038271 0 0  2.111496891648636 0 0  2.133096679109554 0 0  2.154897066851056 0 0  2.176899916687499 0 0  2.199107102752146 0 0  2.22152053937028 0 0  2.244142122958061 0 0  2.266973806444078 0 0  2.290017523268154 0 0  2.313275249499252 0 0  2.336748971745516 0 0  2.360440702338606 0 0  2.384352453384031 0 0  2.408486280477412 0 0  2.432844240041185 0 0  2.457428414757088 0 0  2.482240901796653 0 0  2.507283830121838 0 0  2.532559332080812 0 0  2.558069568787417 0 0  2.583816724966441 0 0  2.60980299606584 0 0  2.636030600971886 0 0  2.662501790984011 0 0  2.689218818279327 0 0  2.716183964547616 0 0  2.743399548861297 0 0  2.77086788244719 0 0  2.798591312896326 0 0  2.826572223178268 0 0  2.854812990138617 0 0  2.883316031690714 0 0  2.912083780657189 0 0  2.941118704633482 0 0  2.970423276998917 0 0  3 0.02999999999994495 0  3 0.05999999999987042 0  3 0.089999999999783 0  3 0.119999999999701 0  3 0.149999999999619 0  3 0.179999999999692 0  3 0.2099999999997737 0  3 0.2399999999998511 0  3 0.2699999999999185 0  2.970138294777171 0.3 0  2.940375666438236 0.3 0  2.910711782853056 0.3 0  2.881146331305122 0.3 0  2.851678975030285 0.3 0  2.822309388626621 0.3 0  2.793037250095074 0.3 0  2.76386223529133 0.3 0  2.734784017903872 0.3 0  2.705802289276642 0.3 0  2.676916713794697 0.3 0  2.648126987654635 0.3 0  2.619432780406184 0.3 0  2.590833779385199 0.3 0  2.562329669847737 0.3 0  2.533920134950189 0.3 0  2.505604855727852 0.3 0  2.477383539822502 0.3 0  2.449255847639465 0.3 0  2.421221492569094 0.3 0  2.393280152486815 0.3 0  2.36543151914496 0.3 0  2.337675285481809 0.3 0  2.310011142385583 0.3 0  2.282438797441587 0.3 0  2.254957931061538 0.3 0  2.227568248063605 0.3 0  2.200269436651085 0.3 0  2.173061204949961 0.3 0  2.145943251515011 0.3 0  2.118915272469994 0.3 0  2.091976978084957 0.3 0  2.065128060700849 0.3 0  2.038368218849433 0.3 0  2.01169717777258 0.3 0  1.985114624111908 0.3 0  1.958620267850966 0.3 0  1.93221382054972 0.3 0  1.905894991850698 0.3 0  1.879663489459713 0.3 0  1.853519019126419 0.3 0  1.827461291053897 0.3 0  1.801490031354372 0.3 0  1.775604937580312 0.3 0  1.74980572560258 0.3 0  1.724092118631866 0.3 0  1.698463829173586 0.3 0  1.672920575782554 0.3 0  1.647462076974085 0.3 0  1.622088043536933 0.3 0  1.5967981978949 0.3 0  1.571592267767068 0.3 0  1.546469970305736 0.3 0  1.521431023814044 0.3 0  1.496475156230927 0.3 0  1.471602093687753 0.3 0  1.446811560490646 0.3 0  1.422103279101731 0.3 0  1.397476971708191 0.3 0  1.37293238939876 0.3 0  1.348469231419202 0.3 0  1.324087248732772 0.3 0  1.299786165921677 0.3 0  1.275565710847046 0.3 0  1.251425617644257 0.3 0  1.227365618676339 0.3 0  1.203385446174014 0.3 0  1.179484853067473 0.3 0  1.155663548773374 0.3 0  1.131921292279077 0.3 0  1.108257802159295 0.3 0  1.084672829009693 0.3 0  1.061166115303374 0.3 0  1.037737392995421 0.3 0  1.01438640299116 0.3 0  0.991112899770314 0.3 0  0.9679166155523955 0.3 0  0.944797284182564 0.3 0  0.921754678526042 0.3 0  0.8987885143602501 0.3 0  0.8758985548820624 0.3 0  0.8530845484099929 0.3 0  0.8303462351786988 0.3 0  0.8076833651172373 0.3 0  0.7850956864865304 0.3 0  0.7625829601354557 0.3 0  0.7401449314598274 0.3 0  0.717781337993959 0.3 0  0.6954919649675473 0.3 0  0.6732765357561226 0.3 0  0.6511348120768439 0.3 0  0.6290665642016573 0.3 0  0.6070715355430467 0.3 0  0.5851494825775325 0.3 0  0.5633001690203812 0.3 0  0.5415233562273221 0.3 0  0.5198187909431873 0.3 0  0.4981862401387795 0.3 0  0.4766254686134248 0.3 0  0.4551362360485234 0.3 0  0.4337182975262159 0.3 0  0.4123714223228037 0.3 0  0.3910953802377493 0.3 0  0.3698899313205595 0.3 0  0.3487548463710963 0.3 0  0.3276898864081783 0.3 0  0.3066948129116018 0.3 0  0.2857694003037476 0.3 0  0.2649134227095047 0.3 0  0.2441266417321288 0.3 0  0.2234088223399122 0.3 0  0.2027597568977288 0.3 0  0.1821792020676698 0.3 0  0.1616669305402443 0.3 0  0.1412227158799362 0.3 0  0.12084633013886 0.3 0  0.1005375673448281 0.3 0  0.08029618164595353 0.3 0  0.06012194778526769 0.3 0  0.04001466495039718 0.3 0  0.01997408913631205 0.3 0  0 0.2800000000000553 0  0 0.2600000000001105 0  0 0.2400000000001658 0  0 0.2200000000002211 0  0 0.2000000000002764 0  0 0.1800000000002244 0  0 0.1600000000001691 0  0 0.140000000000115 0  0 0.1200000000000564 0  1.133778471000506 0.01219539743990768 0  1.003741919047894 0.09354664821474232 0  0.9559421147150347 0.1035858189992458 0  0.9313792160389045 0.1037365237938103 0  0.9788461538460573 0.1033060829993555 0  0.9090102438250753 0.1037269304984056 0  0.8846304212778655 0.1043349840723655 0  0.8581503885465881 0.104741932962923 0  0.8286416220145676 0.1052762843984476 0  0.7982741772533339 0.1053575624517407 0  0.7708789559342691 0.1060290465840416 0  0.741870349714261 0.1078220590984258 0  0.7112469360040695 0.10685702926368 0  0.6783901541417233 0.1079959711853378 0  0.642884733623195 0.1075561996086514 0  0.6056235042367955 0.1085956039602543 0  0.5647007593786924 0.1083187281660325 0  1.1953125 0.01353164693413185 0  1.258148737344733 0.01268350115427042 0  1.320087046516829 0.01426312402966312 0  1.383495130751951 0.01432665475473204 0  1.4453125 0.01315663539200989 0  1.50886768312388 0.01395488397722681 0  0.9942307692307371 0.103330866937657 0  1.119309781943483 0.2802014914557878 0  1.572831235329714 0.01707210522554785 0  1.637611634353954 0.01209340368483431 0  1.709661292005932 0.0146870244871893 0  1.006561890631532 0.07068055446055937 0  1.784793444007901 0.01499371444634687 0  1.855459587353174 0.0
[...]
<PointData  Scalars="pressure"> 
<DataArray  type="Float64"  Name="pressure"  format="ascii">1.3234386840984208e-01  -1.8625114822741431e-01  -1.9274626764663355e-01  -1.3710952409493821e-01  2.1888156675829711e-02  0.0000000000000000e+00  0.0000000000000000e+00  1.3236053739286441e-01  1.2642114884714911e-01  1.2059672155654630e-01  1.1486890112458858e-01  1.0923605682055977e-01  1.0369655296884528e-01  9.8248839821685016e-02  9.2891339826567901e-02  8.7622500542879178e-02  8.2440856500943654e-02  7.7344820791307264e-02  7.2332941390344532e-02  6.7403798740170676e-02  6.2555887822687450e-02  5.7787817706996036e-02  5.3098120996793556e-02  4.8485435937147547e-02  4.3948297491360810e-02  3.9485405600930341e-02  3.5095303493529975e-02  3.0776717783840325e-02  2.6528134615567665e-02  2.2348329025634633e-02  1.8236150461952285e-02  1.4189846534519714e-02  1.0208331026147939e-02  6.2901734197792552e-03  2.4342074870875399e-03  -1.3610871316697543e-03  -5.0968926524505324e-03  -8.7746507877586866e-03  -1.2395551850290086e-02  -1.5960761035384297e-02  -1.9472102501785108e-02  -2.2930591526000098e-02  -2.6337478044702243e-02  -2.9694158348835618e-02  -3.3002110271647893e-02  -3.6262440243638804e-02  -3.9476650801970131e-02  -4.2645940734379918e-02  -4.5771872018553456e-02  -4.8855658080108853e-02  -5.1898623667732700e-02  -5.4902096043569659e-02  -5.7867597394519181e-02  -6.0796255542050183e-02  -6.3689732173103183e-02  -6.6549145794616349e-02  -6.9375928647724031e-02  -7.2171817833447116e-02  -7.4937530334650990e-02  -7.7675074839556130e-02  -8.0385865145135557e-02  -8.3070183249123977e-02  -8.5730516189747544e-02  -8.8368116193098284e-02  -9.0983889394567002e-02  -9.3580785184255957e-02  -9.6158039824989203e-02  -9.8717290629424220e-02  -1.0126142928613467e-01  -1.0379100941123845e-01  -1.0630843152148793e-01  -1.0881314745396765e-01  -1.1130677327472312e-01  -1.1379299816417379e-01  -1.1627153584666756e-01  -1.1874436411999498e-01  -1.2121285155838642e-01  -1.2367864600241094e-01  -1.2614286088116519e-01  -1.2860775873575780e-01  -1.3107387503466877e-01  -1.3354310884574341e-01  -1.3601845083434658e-01  -1.3850088539555244e-01  -1.4099156030247570e-01  -1.4349359802384784e-01  -1.4600860266045682e-01  -1.4853835400201504e-01  -1.5108473711458234e-01  -1.5365419014795015e-01  -1.5624517724324880e-01  -1.5886243959059182e-01  -1.6150877768395083e-01  -1.6419078626335365e-01  -1.6691101609524694e-01  -1.6967413383523611e-01  -1.7249238892786253e-01  -1.7536847145658235e-01  -1.7831034360036707e-01  -1.8133941054079619e-01  -1.8447380819611756e-01  -1.8753684437802012e-01  -1.9204247973760297e-01  -1.9805216832624728e-01  -2.0755633991130845e-01  -2.1131972519354320e-01  -2.1195147983462406e-01  -2.0974258287956379e-01  -2.0549285517048221e-01  -1.9974973601891963e-01  -1.9313876178305192e-01  -1.8614554238288747e-01  -1.7914673958782515e-01  -1.7412646054709821e-01  -1.5937418280613624e-01  -1.8179071071093666e-01  -1.6078470775748516e-01  -1.5349250938798720e-01  -1.4812639481958426e-01  -1.4448699496420100e-01  -1.4170953877120526e-01  -1.3952762851136102e-01  -1.3792781386696662e-01  -1.3691248466490041e-01  -1.3651720179219243e-01  -1.3678377662116109e-01  -1.3751419965752146e-01  -1.3768802553803824e-01  -1.3717171986202290e-01  -1.3612202744986643e-01  -1.3469274110816176e-01  -1.3303126662471843e-01  -1.3123984889824397e-01  -1.2941692175618894e-01  -1.2766850022442230e-01  -1.2604369815840505e-01  -1.2455372280546180e-01  -1.2315212955096701e-01  -1.2173131638568004e-01  -1.2013183831571009e-01  -1.1815813370263790e-01  -1.1560849139218803e-01  -1.1225192116454615e-01  -1.0789889905512143e-01  -1.0241881313516035e-01  -9.5603751477712773e-02  -8.7634184390549735e-02  -7.8495406483667027e-02  -6.8346868289381982e-02  -5.7487331106941895e-02  -4.6098545484767953e-02  -3.4682780604107032e-02  -2.3337115372857545e-02  -1.2505464510037525e-02  -2.3882909025171729e-03  6.8041242748219186e-03  1.4921676473390537e-02  2.7751708110757400e-02  3.2407677173497594e-02  3.5880099017443205e-02  3.8171391110954647e-02  3.9407809222610071e-02  3.9679094003174618e-02  3.9063447614106094e-02  3.7732755600751532e-02  3.5727461816273960e-02  3.3258748281979403e-02  3.0508958972299886e-02  2.7658798858628326e-02  2.4888231090874874e-02  2.2425029375445389e-02  2.0456276947662454e-02  1.9179524498530658e-02  1.8736090089079189e-02  1.9303176001167356e-02  2.0806376921121375e-02  2.3242226175028566e-02  2.6526246743170060e-02  3.0405637371609954e-02  3.4625562638796563e-02  3.8917562601336053e-02  4.2953387098816402e-02  4.6546313623844746e-02  4.9361713495321452e-02  5.1320875985920465e-02  5.2308478488599409e-02  5.2284226691064542e-02  5.1294996863556507e-02  4.9464767158018987e-02  4.6956582824956371e-02  4.3970694013979177e-02  4.0705885269313812e-02  3.7439798115165270e-02  3.4403883655442814e-02  3.1833367814022434e-02  2.9892649775390405e-02  2.8678083437185826e-02  2.8194009873789675e-02  2.8350099518189835e-02  2.8973860702176814e-02  2.9831137398332978e-02  3.0669619839845060e-02  3.1246411108575668e-02  3.1363415054463446e-02  3.0888570679821765e-02  2.9772137589414299e-02  2.8000169780680817e-02  2.5639035515572776e-02  2.2881997269329768e-02  1.9741906542003949e-02  1.6511301250780902e-02  1.3292628804865045e-02  1.0193161403290189e-02  7.4900167604536657e-03  5.2164581776867041e-03  3.5255775763373669e-03  2.4617660554690788e-03  2.0462954319236631e-03  2.1980602688743702e-03  2.7328500302311520e-03  3.3733840114206952e-03  3.8012697671947898e-03  3.6827724688340254e-03  2.7719292041938309e-03  0.0000000000000000e+00  0.0000000000000000e+00  0.0000000000000000e+00  0.0000000000000000e+00  0.0000000000000000e+00  0.0000000000000000e+00  0.0000000000000000e+00  0.0000000000000000e+00  0.0000000000000000e+00  3.1905022480373177e-03  7.0237183310896661e-03  1.0972709152412601e-02  1.4822174439567844e-02  1.8547003674430022e-02  2.2084333820123776e-02  2.5333346844759876e-02  2.8147990370668955e-02  3.0353763074248717e-02  3.1790545232437552e-02  3.2333972023718703e-02  3.1948714536726291e-02  3.0711450818124812e-02  2.8831180150824975e-02  2.6651786289143060e-02  2.4587718794147010e-02  2.3073544207639199e-02  2.2462444044170894e-02  2.2944858799635946e-02  2.4502169086586690e-02  2.6906556764448544e-02  2.9769238863034071e-02  3.2604118001056587e-02  3.4924307134665891e-02  3.6324067881528033e-02  3.6511141074462752e-02  3.5341424185663183e-02  3.2896957881114228e-02  2.9457392627259715e-02  2.5477428615490225e-02  2.1547034872547343e-02  1.8249484024729080e-02  1.6089726818737913e-02  1.5276893306812334e-02  1.6262514327619472e-02  1.8405641641204687e-02  2.1716792118868657e-02  2.5455262127639235e-02  2.9136643590616521e-02  3.2433260406564669e-02  3.4714926457995524e-02  3.5844770289079578e-02  3.5611406710843861e-02  3.3879219817170916e-02  3.0580756149342764e-02  2.5743033336996748e-02  1.9459201053330186e-02  1.1925917977247997e-02  3.4114748140559314e-03  -5.6927380803461058e-03  -1.4960756432116348e-02  -2.3906762186941134e-02  -3.2324739664333309e-02  -3.9831447113143341e-02  -4.6256103849271563e-02  -5.1652560007534744e-02  -5.6140147589846812e-02  -5.9935635163876178e-02  -6.3295776774959442e-02  -6.6506323714310908e-02  -6.9790593071743692e-02  -7.3320175632075199e-02  -7.7132384626225195e-02  -8.1294695255235680e-02  -8.5747648231255094e-02  -9.0399084327096382e-02  -9.5135131117544194e-02  -9.9833730221762382e-02  -1.0436838348061854e-01  -1.0863884620017619e-01  -1.1246032500066259e-01  -1.1587285826770582e-01  -1.1876010751404467e-01  -1.2101237381153636e-01  -1.2243853352778548e-01  -1.2318705047066246e-01  -1.2303790768759132e-01  -1.2207441443600468e-01  -1.2046062454161990e-01  -1.1785819281370769e-01  -1.1459689073729115e-01  -1.1071563288647324e-01  -1.0636684918437325e-01  -1.0158572952278978e-01  -9.6426377100888583e-02  -9.0967452060174883e-02  -8.5297985449683006e-02  -7.9448730730773090e-02  -7.3437196526113829e-02  -6.7328773144721285e-02  -6.1127851669001920e-02  -5.4867480159751743e-02  -4.8560038737644577e-02  -4.2215854556947534e-02  -3.5846814649496073e-02  -2.9465865906363926e-02  -2.3076496312850633e-02  -1.6684241639863900e-02  -1.0294589569543910e-02  -3.9123039915946187e-03  2.4602922147539028e-03  8.8228327744638256e-03  1.5171472435652039e-02  2.1505594617729315e-02  2.7823524562091424e-02  3.4124895943360337e-02  4.0408952028321364e-02  4.6674314489635223e-02  5.2921718249762509e-02  5.9149704603976547e-02  6.5358770190909868e-02  7.1548430557791420e-02  7.7718401199196013e-02  8.3868877160423308e-02  8.9999574983963923e-02  9.6110507628798247e-02  1.0220164803523164e-01  1.0827298858498784e-01  1.1432454252012691e-01  1.2035631464157673e-01  1.2636831024984241e-01  1.3236049179291051e-01  1.3235980937575675e-01  1.3235810000722406e-01  1.3235544241858591e-01  1.3235220659023567e-01  1.3234897590772673e-01  1.3234630852478252e-01  1.3234461220685387e-01  1.3234392694799690e-01  -1.2808828790607740e-01  -1.6425384893674513e-01  -2.0512795297783390e-01  -1.8016906063844604e-01  -1.9455360682473230e-01  -1.6577341533021853e-01  -1.5252936004961912e-01  -1.3986816114261685e-01  -1.2717927236808291e-01  -1.1519191612945127e-01  -1.0505463966711180e-01  -9.4829333540345367e-02  -8.4435109366208155e-02  -7.3640003144256158e-02  -6.2260042006331541e-02  -5.0549295042405233e-02  -3.7871761647742364e-02  -1.2196378554785052e-01  -1.1366818282859902e-01  -9.2178903449308611e-02  -5.2128831384879400e-02  -8.2241870817270513e-03  2.4565539299037757e-02  -1.7040463636713721e-01  -1.1005115399796796e-01  3.8539852247360985e-02  3.6981184061008289e-02  2.6415227383818303e-02  -1.4378067383193924e-01  1.8749927227348164e-02  2.4014694761996119e-02  -2.4746572634349481e-02  4.0462074575712124e-02  -9.2063263009798807e-02  -7.4285476498048300e-02  5.1841919080364916e-02  -6.1042730737283855e-02  -1.0378268856590843e-02  -3.7166108475018771e-02  4.8541507684132089e-02  3.6970337779849865e-03  -1.3341237361873823e-01  3.6020501073242457e-02  7.6157737620607922e-03  -1.1921039442561923e-01  1.9830169756224317e-02  2.8243979771965747e-02  3.6104116214406144e-02  3.7585670122006656e-02  3.1429982859117120e-02  3.0138234534986208e-02  1.9986922168882960e-02  -1.2226247882129136e-01  3.0323775777819539e-02  5.5442377091026562e-02  1.5362378104765106e-02  -1.1605663927527120e-01  -1.0344287321184308e-01  2.3101593529590968e-02  2.1576063974115153e-02  7.5336049205187536e-02  9.0139142617258347e-02  2.8243872479940420e-02  1.1795180153795387e-02  3.9835779864424558e-03  -8.2637985382218657e-02  3.4111028086160684e-02  3.3833779620497141e-02  -6.3978064764249776e-02  -1.8946170750226290e-01  -2.0968312173314638e-01  -4.5553223482887165e-02  2.5514597025742575e-02  1.6533328691795061e-03  -2.0747721808492110e-02  2.3232638035705532e-02  1.1823478332615635e-02  2.9475594077041568e-02  4.3542407577873803e-02  3.2206103074935662e-02  6.2152853611361428e-02  9.9025584937141392e-02  8.0939019915064969e-02  2.7076163534442026e-02  1.2730881979822978e-01  2.3087789691548519e-03  1.0665586911502778e-01  -1.3798819473421597e-01  1.7372925239783604e-02  3.0588114652751672e-03  -1.5033161772484535e-01  -1.3625261392974916e-01  -1.2222615185848147e-01  -1.0159537482052432e-01  -9.3808563368314959e-02  -3.2608483537353267e-02  -7.4072870084055742e-03  2.5403778667097286e-02  -1.9670624460278344e-02  -5.3532595695500611e-02  -6.7101597249717149e-02  -8.2744372595310603e-02  6.4979402959927712e-02  4.6297314764484968e-02  3.6592738200746391e-02  2.2218184728206778e-02  2.9116038559213547e-02  2.7165951079330373e-02  1.1120213303970609e-01  3.1336927712728176e-02  2.8456549700775557e-02  1.1892009914165004e-02  3.0802494957648599e-02  1.2727938368464239e-01  4.2618632781159176e-02  -3.1318325385977942e-03  5.1943521428976874e-02  4.7978272619144245e-02  3.3701309450479042e-02  3.1544963437648059e-02  -1.7855550466339205e-02  1.9610684261517332e-02  2.1425037889430367e-02  3.2115277098036084e-02  -3.1467635078639568e-02  3.9236374481479250e-02  1.6351189422195574e-03  -4.4217729633566960e-02  -5.6439178709571089e-02  -6.8225467184122021e-02  -7.8747637620392774e-02  -8.9888316516224309e-02  -1.0005465031455435e-01  -1.1037432327642786e-01  -1.2252448442139667e-01  -1.2479195591932542e-01  -1.3488411005031647e-01  -1.4748636484264929e-01  -1.6038235700978720e-01  -1.1875084522260894e-01  -1.7375750363259301e-01  -7.4412137997552863e-02  -1.0466695348213181e-01  -3.1507501726715487e-02  1.0161676801641982e-02  1.2770026477583607e-01  -1.8091020817204592e-01  3.1557503583067802e-03  1.1769413045968584e-01  9.4185626414773106e-03  -1.3721720423604758e-01  1.9471935326467705e-03  1.2783704823247230e-01  -1.3696350595989401e-01  -1.3658340060921495e-01  -1.3579357365905784e-01  -1.3656700954080309e-01  -1.3571005503070865e-01  -1.3681071175896853e-01  -1.3570575368105359e-01  -1.3707981315446618e-01  -1.3567091623740227e-01  -1.3708858887747294e-01  -1.3526879524390079e-01  -1.3656918952423761e-01  -1.3426692008197941e-01  -1.3541316286639329e-01  -1.3269212409975623e-01  -1.3377448730857475e-01  -1.3065738315503234e-01  -1.3183843991486696e-01  -1.2859635144563639e-01  -1.2978239619241108e-01  -1.2643314330478386e-01  -1.3332310830335020e-01  -1.2522518692084417e-01  -1.2321976466498728e-01  -1.3098883733367297e-01  -1.3489851647148199e-01  -1.2199918448783240e-01  -1.2024292185338681e-01  -1.1964277694422783e-01  -1.1798189789115512e-01  -1.1783758786522945e-01  -1.1638946515951254e-01  -1.1690911277060055e-01  -1.1542843126149709e-01  -1.1659082338254670e-01  -1.1428038394660782e-01  -1.1645733465194452e-01  -1.1375812779893783e-01  -1.1620629966080699e-01  -1.1251010789461688e-01  -1.1514806511462389e-01  -1.0922193099924454e-01  -1.1247486396907740e-01  -1.0612763894213123e-01  -1.0806312640669280e-01  -1.0061702749134803e-01  -1.0142443355979043e-01  -9.3393561857057383e-02  -9.2625768435519021e-02  -8.4548921074970015e-02  -8.1831403029716393e-02  -1.3193292614661056e-01  -1.3573751394205863e-01  -7.4524025039868214e-02  -6.9451624123001585e-02  -6.3959285222996348e-02  -5.6623955041624395e-02  -5.3409978203978713e-02  -4.4687771855039096e-02  -4.3198335007423858e-02  -3.2794611004727525e-02  -3.3854618616912968e-02  -2.1948822066451462e-02  -1.2096020933579757e-01  -2.5494630344785288e-02  -1.2382481504968906e-02  -1.8185440593765666e-02  -4.3264465339070256e-03  -1.2042162389163171e-02  2.2499432816514026e-03  -1.3246064482532541e-01  -1.3640142785022372e-01  -1.3790203222546085e-01  -6.6463246404868869e-03  7.5529379123989038e-03  -1.3874060777406946e-01  -1.5699622066543963e-03  1.1767517879635198e-02  2.5394247490404215e-03  1.4976718264039866e-02  6.4281184613883338e-03  1.7420589702065802e-02  -1.1457883368311104e-01  9.4111827372358233e-03  1.9138377758483309e-02  1.2983267294103444e-02  2.0515525747461519e-02  1.5973244235663892e-02  2.1428402602313896e-02  -1.3155946505901817e-01  -1.0968492208541444e-01  1.8705455216334394e-02  2.2149223082786128e-02  -1.3243325279790427e-01  -1.3734067430361704e-01  -1.2861437484318189e-01  -9.8052677563417179e-02  2.1102003744365674e-02  2.2724288873235791e-02  2.3565966805781061e-02  2.3301293067586059e-02  2.5825726519415698e-02  2.3968141964764725e-02  1.5282453271756681e-02  2.3876542592297486e-02  2.5460636111173392e-02  -9.7706933112302139e-03  2.7817810931498682e-02  2.4867246399284441e-02  2.1111044001005840e-02  2.1167376476738872e-02  2.5852299404012395e-02  2.1808721982345087e-02  2.6920004854621180e-02  2.3002755599268364e-02  2.8032576509243214e-02  2.4756381823424507e-02  2.9032943681566718e-02  2.6639904203728474e-02  2.9692719104529090e-02  2.8532878565783324e-02  2.9914967835365090e-02  3.0108793867437443e-02  2.9594869728655632e-02  3.1346396118765246e-02  2.8736652901351887e-02  3.2016428880440644e-02  2.7576514539902865e-02  3.2198447923991069e-02  2.5956575506852386e-02  3.1937484619259916e-02  -4.8232440514677233e-02  -7.6762228186737100e-02  2.4638451448773437e-02  3.1500724148839969e-02  2.3945473876286299e-02  3.1054388847166773e-02  -1.1807332176706339e-01  2.3815002238645414e-02  3.0860464328622470e-02  -1.0800042912545166e-01  -1.1796918651660679e-01  -1.3177850497468566e-01  -1.3471032676688999e-01  -1.4153085004980889e-01  -1.4012113248379474e-01  -1.4634593484116715e-01  -1.4470103038084811e-01  -1.5119499427615790e-01  -1.4872913829519560e-01  -1.5582800895410320e-01  -1.5225529095783427e-01  -1.5967783993758183e-01  -1.5473739272396586e-01  -1.6245525807877992e-01  -1.5646095523879164e-01  -1.6471321440600825e-01  -1.5773928138064472e-01  -1.6350207291283489e-01  -1.5609740075141901e-01  -1.6202688061693449e-01  -1.5556692717006898e-01  -1.5966842096807754e-01  -1.5331025869929507e-01  -1.5653166927008563e-01  -1.5046069104053700e-01  -1.5291989672526210e-01  -1.4725167508911530e-01  -1.4903512265718399e-01  -1.4368987893125917e-01  -1.4897887034753141e-01  -1.4158626754734710e-01  -1.3832787389624779e-01  -1.3993984247295999e-01  -1.3494107239889463e-01  -1.3612100708183755e-01  -1.3143460497806655e-01  -1.3241311935029251e-01  -1.2788864763489413e-01  -1.3013676438422433e-01  -1.2913484091207467e-01  -1.2432607556881765e-01  -1.2456388664181835e-01  -1.2048155139049502e-01  -1.1999034645025299e-01  -1.1639358213300022e-01  -1.1664452529870836e-01  -1.1276444523740810e-01  -1.1269119400654862e-01  -1.0907101038303170e-01  -1.5188112682377602e-01  -1.0875985042884405e-01  -1.0529655358820804e-01  -1.0530277973264536e-01  -1.0166160878645036e-01  -1.0153152288706124e-01  -9.7983457050456746e-02  -9.7751036627437699e-02  -9.4286787797836641e-02  -1.7000534858355379e-01  -1.5177762619701496e-01  -1.6305742862585479e-01  -1.6842448491188883e-01  -9.3896394521526649e-02  -9.0526374307738577e-02  -9.0804676802799453e-02  -8.7058627736933042e-02  -8.6724013369888775e-02  -8.3291994947795739e-02  -8.2860045980816574e-02  -7.9468082842383450e-02  -7.9870397745093760e-02  -7.6071802766281171e-02  -7.5543904239704529e-02  -7.2209162235287852e-02  -1.1584911719885264e-01  -7.1586132250464063e-02  -6.8345709288384474e-02  -1.6281916258922341e-01  -1.4493371014238932e-01  -1.0163933514917330e-01  -1.5428233279848291e-01  -6.7680191997166197e-02  -6.4367236004389927e-02  -6.5279241276925276e-02  -6.1066240453339984e-02  -6.0447107872150747e-02  -5.6995603527803085e-02  -5.7620965795059403e-02  -5.3551177519994067e-02  -5.2917230453703105e-02  -4.9482855341309334e-02  -1.3684409042487344e-01  -4.8844802623983816e-02  -4.5344436373934434e-02  -7.6256017140542282e-02  -1.1562960269084843e-01  -5.2232679868251058e-02  -1.2830259934453564e-01  -4.6003198712148016e-02  -4.1845860771436330e-02  -4.1190838372921021e-02  -3.7692066018283052e-02  2.4200957819817133e-02  3.0786938851263507e-02  2.5435028282808442e-02  3.1123922735377146e-02  2.7340660877562768e-02  3.1669404432581427e-02  -3.6873971424539957e-02  -3.3421770415127394e-02  -2.0680352763822851e-02  -3.4129277187500681e-02  -2.9885910814600337e-02  -2.9306413920700446e-02  -2.5669945446069257e-02  -1.3819751833533150e-01  -1.3469891715212826e-01  -1.0119272984471728e-01  2.5844356583586942e-02  2.9583420755996011e-02  3.2343866627741059e-02  1.8279421858571742e-02  3.8132218893403187e-02  3.4515026376459840e-02  3.3504246736000762e-02  3.2992285732363021e-02  3.2653199732990731e-02  3.3483001484821903e-02  3.1940237392257063e-02  3.3708174147796310e-02  3.1423886133532600e-02  3.3571032022837080e-02  3.1022176937991801e-02  3.3071651001132144e-02  3.0708277303497167e-02  3.2185872905597802e-02  3.0357142565105567e-02  3.0908420812493703e-02  2.9911614541367856e-02  2.9368293723522343e-02  2.9302206906144837e-02  2.7740801186040043e-02  2.8568354901852711e-02  2.6140876635741449e-02  2.7710060093626927e-02  2.4766216931339381e-02  2.6810264252621785e-02  -2.5082176372446897e-02  -2.1426207598858139e-02  -2.1752336379534658e-02  -1.7640552226776973e-02  -1.7110630474133533e-02  -1.3375045679191110e-02  2.3823360208