<?xml version="1.0"?>
<VTKFile type="UnstructuredGrid"  version="0.1"  >
<UnstructuredGrid>
<Piece  NumberOfPoints="2886" NumberOfCells="5412">
<Points>
<DataArray  type="Float64"  NumberOfComponents="3"  format="ascii">0 0.1 0  0.98 0.1 0  1 0.1 0  1 0 0  1.5 0 0  3 0 0  3 0.3 0  0 0.3 0  0.01975375321854102 0.1 0  0.03918897458218897 0.1 0  0.05831079002627837 0.1 0  0.07712425666319796 0.1 0  0.0956343475259058 0.1 0  0.1138459546796227 0.1 0  0.1317638870668193 0.1 0  0.1493928840275937 0.1 0  0.1667376092280033 0.1 0  0.1838026357802664 0.1 0  0.2005924801287244 0.1 0  0.2171115811543574 0.1 0  0.2333643037107681 0.1 0  0.2493549444060462 0.1 0  0.2650877293306821 0.1 0  0.2805668058011438 0.1 0  0.2957962848620976 0.1 0  0.3107801766802674 0.1 0  0.3255224447361181 0.1 0  0.3400269848175519 0.1 0  0.3542976327080778 0.1 0  0.3683381609158136 0.1 0  0.3821522744564845 0.1 0  0.3957436316838916 0.1 0  0.4091158196437086 0.1 0  0.4222723742184605 0.1 0  0.4352167733293057 0.1 0  0.4479524348643424 0.1 0  0.4604827295467524 0.1 0  0.4728109659990664 0.1 0  0.4849404035409129 0.1 0  0.4968742471455402 0.1 0  0.508615651843175 0.1 0  0.520167721130924 0.1 0  0.5315335063628542 0.1 0  0.5427160117228604 0.1 0  0.5537181940261912 0.1 0  0.564542961924507 0.1 0  0.575193173270606 0.1 0  0.5856716438765114 0.1 0  0.5959811458006617 0.1 0  0.6061243988680743 0.1 0  0.6161040893285659 0.1 0  0.6259228503970299 0.1 0  0.6355832809287655 0.1 0  0.6450879281079505 0.1 0  0.6544393102991295 0.1 0  0.663639896558931 0.1 0  0.6726921201956305 0.1 0  0.6815983691630338 0.1 0  0.6903610031396646 0.1 0  0.6989823343332418 0.1 0  0.7074646404270378 0.1 0  0.7158101645005117 0.1 0  0.7240211149852543 0.1 0  0.7320996585612525 0.1 0  0.7400479319727645 0.1 0  0.7478680336617921 0.1 0  0.755562036504958 0.1 0  0.7631319665092091 0.1 0  0.7705798279317605 0.1 0  0.777907588066146 0.1 0  0.7851171851013118 0.1 0  0.7922105226004981 0.1 0  0.7991894774550319 0.1 0  0.8060558928136696 0.1 0  0.812811583201334 0.1 0  0.8194583352091183 0.1 0  0.8259979035038147 0.1 0  0.8324320194413813 0.1 0  0.8387623808293405 0.1 0  0.8449906627004957 0.1 0  0.8511185094880469 0.1 0  0.8571475426008311 0.1 0  0.8630793533568246 0.1 0  0.8689155114558531 0.1 0  0.8746575581239063 0.1 0  0.8803070109173519 0.1 0  0.885865363938836 0.1 0  0.8913340851680313 0.1 0  0.8967146206523592 0.1 0  0.9020083930695622 0.1 0  0.9072167995950768 0.1 0  0.9123412183131177 0.1 0  0.9173830029719022 0.1 0  0.9223434865647732 0.1 0  0.9272239785872722 0.1 0  0.9320257720706087 0.1 0  0.9367501330378739 0.1 0  0.9413983102716995 0.1 0  0.9459715351562933 0.1 0  0.9504710127113115 0.1 0  0.9548979346500661 0.1 0  0.9592534708344373 0.1 0  0.9635387708980176 0.1 0  0.9677549682252325 0.1 0  0.971903177251235 0.1 0  0.9759844952956497 0.1 0  0.9840000000000086 0.1 0  0.987999999999974 0.1 0  0.9919999999999393 0.1 0  0.9959999999999913 0.1 0  1 0.09591793123533533 0  1 0.09133596463859224 0  1 0.08619288104391448 0  1 0.08041996484521211 0  1 0.07394008421771697 0  1 0.06666666567302955 0  1 0.05850252932209174 0  1 0.04933859630113544 0  1 0.03905242821848202 0  1 0.02750659386753798 0  1 0.01454683679239736 0  1.015625 0 0  1.03125 0 0  1.046875 0 0  1.0625 0 0  1.078125 0 0  1.09375 0 0  1.109375 0 0  1.125 0 0  1.140625 0 0  1.15625 0 0  1.171875 0 0  1.1875 0 0  1.203125 0 0  1.21875 0 0  1.234375 0 0  1.25 0 0  1.265625 0 0  1.28125 0 0  1.296875 0 0  1.3125 0 0  1.328125 0 0  1.34375 0 0  1.359375 0 0  1.375 0 0  1.390625 0 0  1.40625 0 0  1.421875 0 0  1.4375 0 0  1.453125 0 0  1.46875 0 0  1.484375 0 0  1.515920751924515 0 0  1.531989369316721 0 0  1.54820720925872 0 0  1.564575665560501 0 0  1.581096138674279 0 0  1.597770029901263 0 0  1.614598783332311 0 0  1.631583831055205 0 0  1.64872661129721 0 0  1.666028606716533 0 0  1.683491276608443 0 0  1.701116134125304 0 0  1.718904673324128 0 0  1.736858414799339 0 0  1.754978895814663 0 0  1.773267661782904 0 0  1.791726281103402 0 0  1.810356325314689 0 0  1.8291593848892 0 0  1.848137076690385 0 0  1.867291007717254 0 0  1.886622833871288 0 0  1.90613418642363 0 0  1.925826753299799 0 0  1.945702199101513 0 0  1.96576223584749 0 0  1.986008569283268 0 0  2.006442931928877 0 0  2.02706707547783 0 0  2.047882750887917 0 0  2.06889175187935 0 0  2.090095860038271 0 0  2.111496891648636 0 0  2.133096679109554 0 0  2.154897066851056 0 0  2.176899916687499 0 0  2.199107102752146 0 0  2.22152053937028 0 0  2.244142122958061 0 0  2.266973806444078 0 0  2.290017523268154 0 0  2.313275249499252 0 0  2.336748971745516 0 0  2.360440702338606 0 0  2.384352453384031 0 0  2.408486280477412 0 0  2.432844240041185 0 0  2.457428414757088 0 0  2.482240901796653 0 0  2.507283830121838 0 0  2.532559332080812 0 0  2.558069568787417 0 0  2.583816724966441 0 0  2.60980299606584 0 0  2.636030600971886 0 0  2.662501790984011 0 0  2.689218818279327 0 0  2.716183964547616 0 0  2.743399548861297 0 0  2.77086788244719 0 0  2.798591312896326 0 0  2.826572223178268 0 0  2.854812990138617 0 0  2.883316031690714 0 0  2.912083780657189 0 0  2.941118704633482 0 0  2.970423276998917 0 0  3 0.02999999999994495 0  3 0.05999999999987042 0  3 0.089999999999783 0  3 0.119999999999701 0  3 0.149999999999619 0  3 0.179999999999692 0  3 0.2099999999997737 0  3 0.2399999999998511 0  3 0.2699999999999185 0  2.970138294777171 0.3 0  2.940375666438236 0.3 0  2.910711782853056 0.3 0  2.881146331305122 0.3 0  2.851678975030285 0.3 0  2.822309388626621 0.3 0  2.793037250095074 0.3 0  2.76386223529133 0.3 0  2.734784017903872 0.3 0  2.705802289276642 0.3 0  2.676916713794697 0.3 0  2.648126987654635 0.3 0  2.619432780406184 0.3 0  2.590833779385199 0.3 0  2.562329669847737 0.3 0  2.533920134950189 0.3 0  2.505604855727852 0.3 0  2.477383539822502 0.3 0  2.449255847639465 0.3 0  2.421221492569094 0.3 0  2.393280152486815 0.3 0  2.36543151914496 0.3 0  2.337675285481809 0.3 0  2.310011142385583 0.3 0  2.282438797441587 0.3 0  2.254957931061538 0.3 0  2.227568248063605 0.3 0  2.200269436651085 0.3 0  2.173061204949961 0.3 0  2.145943251515011 0.3 0  2.118915272469994 0.3 0  2.091976978084957 0.3 0  2.065128060700849 0.3 0  2.038368218849433 0.3 0  2.01169717777258 0.3 0  1.985114624111908 0.3 0  1.958620267850966 0.3 0  1.93221382054972 0.3 0  1.905894991850698 0.3 0  1.879663489459713 0.3 0  1.853519019126419 0.3 0  1.827461291053897 0.3 0  1.801490031354372 0.3 0  1.775604937580312 0.3 0  1.74980572560258 0.3 0  1.724092118631866 0.3 0  1.698463829173586 0.3 0  1.672920575782554 0.3 0  1.647462076974085 0.3 0  1.622088043536933 0.3 0  1.5967981978949 0.3 0  1.571592267767068 0.3 0  1.546469970305736 0.3 0  1.521431023814044 0.3 0  1.496475156230927 0.3 0  1.471602093687753 0.3 0  1.446811560490646 0.3 0  1.422103279101731 0.3 0  1.397476971708191 0.3 0  1.37293238939876 0.3 0  1.348469231419202 0.3 0  1.324087248732772 0.3 0  1.299786165921677 0.3 0  1.275565710847046 0.3 0  1.251425617644257 0.3 0  1.227365618676339 0.3 0  1.203385446174014 0.3 0  1.179484853067473 0.3 0  1.155663548773374 0.3 0  1.131921292279077 0.3 0  1.108257802159295 0.3 0  1.084672829009693 0.3 0  1.061166115303374 0.3 0  1.037737392995421 0.3 0  1.01438640299116 0.3 0  0.991112899770314 0.3 0  0.9679166155523955 0.3 0  0.944797284182564 0.3 0  0.921754678526042 0.3 0  0.8987885143602501 0.3 0  0.8758985548820624 0.3 0  0.8530845484099929 0.3 0  0.8303462351786988 0.3 0  0.8076833651172373 0.3 0  0.7850956864865304 0.3 0  0.7625829601354557 0.3 0  0.7401449314598274 0.3 0  0.717781337993959 0.3 0  0.6954919649675473 0.3 0  0.6732765357561226 0.3 0  0.6511348120768439 0.3 0  0.6290665642016573 0.3 0  0.6070715355430467 0.3 0  0.5851494825775325 0.3 0  0.5633001690203812 0.3 0  0.5415233562273221 0.3 0  0.5198187909431873 0.3 0  0.4981862401387795 0.3 0  0.4766254686134248 0.3 0  0.4551362360485234 0.3 0  0.4337182975262159 0.3 0  0.4123714223228037 0.3 0  0.3910953802377493 0.3 0  0.3698899313205595 0.3 0  0.3487548463710963 0.3 0  0.3276898864081783 0.3 0  0.3066948129116018 0.3 0  0.2857694003037476 0.3 0  0.2649134227095047 0.3 0  0.2441266417321288 0.3 0  0.2234088223399122 0.3 0  0.2027597568977288 0.3 0  0.1821792020676698 0.3 0  0.1616669305402443 0.3 0  0.1412227158799362 0.3 0  0.12084633013886 0.3 0  0.1005375673448281 0.3 0  0.08029618164595353 0.3 0  0.06012194778526769 0.3 0  0.04001466495039718 0.3 0  0.01997408913631205 0.3 0  0 0.2800000000000553 0  0 0.2600000000001105 0  0 0.2400000000001658 0  0 0.2200000000002211 0  0 0.2000000000002764 0  0 0.1800000000002244 0  0 0.1600000000001691 0  0 0.140000000000115 0  0 0.1200000000000564 0  1.13346801534201 0.01255848438672509 0  1.003577645172735 0.09351054173913405 0  0.9777559943702486 0.1034978156913738 0  0.9524533750752109 0.1040889939962738 0  0.9296242411226409 0.1041520033606139 0  0.9046110503652111 0.104409422380137 0  0.8777709649694228 0.1053360318797398 0  0.8483859145648608 0.1061007868330701 0  0.8162363822948977 0.1052777104363292 0  0.7893110024210437 0.1060761643971561 0  0.7587949382612539 0.1067265405088633 0  0.7280603867732535 0.1069398153264939 0  0.6947001989413015 0.1075609887579097 0  0.6590363283767549 0.1076715322596598 0  0.6210028614493155 0.1072970410408442 0  1.1953125 0.01353164693413185 0  1.258193991486058 0.01269648635163345 0  1.3201967268638 0.01407907077719561 0  1.383538555392096 0.01434101079053473 0  1.445312500000001 0.01303671693628424 0  1.508925448095738 0.01398525724792267 0  0.9939176689634008 0.1034638089837981 0  1.120967497222226 0.2796788492172345 0  1.572835902117391 0.01424132418857359 0  1.637573277451887 0.01212536916586023 0  1.709730776795181 0.01466855431023635 0  1.005631976950563 0.07074019818158772 0  1.784944696816299 0.01454708406461822 0  0.5805605730631225 0.1101465090472147 0  1.855621181165637 0.01550931272897607 0  0.5366111276616774 0.1096761308243709 0  1.935200147913231 0.01760344159641829 0  1.214922267975168 0.2799787705802257 0  1.31178773425331 0.2792
[...]
<PointData  Scalars="pressure"> 
<DataArray  type="Float64"  Name="pressure"  format="ascii">1.5502404200444633e-01  -1.6623945926023256e-01  -2.1192755727953844e-01  -1.5939752177860866e-01  -3.7608098140144396e-02  0.0000000000000000e+00  0.0000000000000000e+00  1.5503205073863585e-01  1.4909792023186966e-01  1.4326727983506002e-01  1.3753055081930987e-01  1.3188620765600281e-01  1.2633273451317834e-01  1.2086865097450310e-01  1.1549252327172227e-01  1.1020287567811821e-01  1.0499831302245068e-01  9.9877445016475455e-02  9.4838861310206649e-02  8.9881210465913478e-02  8.5003177578040587e-02  8.0203392209423047e-02  7.5480553344473719e-02  7.0833449284007352e-02  6.6260667645969912e-02  6.1761016687543482e-02  5.7333249190855078e-02  5.2976051840937163e-02  4.8688259567033196e-02  4.4468742632109821e-02  4.0316127722488861e-02  3.6229336237933021e-02  3.2207059616582726e-02  2.8248196765316525e-02  2.4351702325192414e-02  2.0516282937937304e-02  1.6740742005836359e-02  1.3024026676657880e-02  9.3649913425625404e-03  5.7624199220219392e-03  2.2153157390888355e-03  -1.2775864103493303e-03  -4.7173188480811130e-03  -8.1050853041188427e-03  -1.1441977386471298e-02  -1.4728660975646684e-02  -1.7967051810127907e-02  -2.1157743599376125e-02  -2.4301884615920036e-02  -2.7400801809487164e-02  -3.0455539321097860e-02  -3.3466513185249611e-02  -3.6435910654717449e-02  -3.9364192914118745e-02  -4.2252526931377918e-02  -4.5102095766366423e-02  -4.7913922695440203e-02  -5.0689099518187335e-02  -5.3428868355020580e-02  -5.6134195131525018e-02  -5.8806086179607371e-02  -6.1445535141188147e-02  -6.4054230321508823e-02  -6.6632534567029944e-02  -6.9181799991217943e-02  -7.1702693413274926e-02  -7.4197420851407112e-02  -7.6666386306582568e-02  -7.9109812520647624e-02  -8.1529589957649959e-02  -8.3927424755773125e-02  -8.6302928528893430e-02  -8.8658374543322593e-02  -9.0994514698742410e-02  -9.3311633187921725e-02  -9.5611470428970474e-02  -9.7894992962262062e-02  -1.0016321159619161e-01  -1.0241804829179914e-01  -1.0465960015813046e-01  -1.0688834131524270e-01  -1.0910504198498416e-01  -1.1131356139776549e-01  -1.1351287632749357e-01  -1.1570377334266013e-01  -1.1788838763221725e-01  -1.2006720161553101e-01  -1.2224133175324399e-01  -1.2441210603707645e-01  -1.2658173473975054e-01  -1.2875081771868033e-01  -1.3091975307810266e-01  -1.3309139921515592e-01  -1.3526696181442052e-01  -1.3744795297007406e-01  -1.3963625872472946e-01  -1.4183362643738270e-01  -1.4404238671169411e-01  -1.4626507591674601e-01  -1.4850463559976210e-01  -1.5076465231188671e-01  -1.5304732271037616e-01  -1.5536015300884201e-01  -1.5770470940105075e-01  -1.6012302716467464e-01  -1.6239843946001647e-01  -1.6730898872820762e-01  -1.6914252663260423e-01  -1.7329610243444976e-01  -1.6862317419169481e-01  -2.0062871040022501e-01  -1.7974499108855355e-01  -1.7323220552068033e-01  -1.6846737002608231e-01  -1.6523853532086150e-01  -1.6281038968795528e-01  -1.6098811447372538e-01  -1.5964948227762205e-01  -1.5884269108819740e-01  -1.5864090240569695e-01  -1.5904462651139653e-01  -1.5983927401045267e-01  -1.6021176563069467e-01  -1.6000070417652043e-01  -1.5932121152544179e-01  -1.5826340162153457e-01  -1.5687043046232912e-01  -1.5512655513480778e-01  -1.5301845362995900e-01  -1.5057521129172899e-01  -1.4781425680354837e-01  -1.4473953634268028e-01  -1.4136501662145912e-01  -1.3770213080651403e-01  -1.3376328847194208e-01  -1.2956953233097032e-01  -1.2513445375512836e-01  -1.2047115491995983e-01  -1.1559881827741851e-01  -1.1053726384809148e-01  -1.0529828332700499e-01  -9.9912487834023803e-02  -9.4399737502349867e-02  -8.8776750136114163e-02  -8.3075666323876196e-02  -7.7315541913246424e-02  -7.1527794509742865e-02  -6.5735104649769824e-02  -5.9961208183367073e-02  -5.4238609897025399e-02  -4.8588859646484163e-02  -4.3038468621087962e-02  -3.2223176144494638e-02  -2.6968812466136333e-02  -2.1854788303136488e-02  -1.6914976554952166e-02  -1.2175477519951444e-02  -7.6388503939793118e-03  -3.3294541587443505e-03  7.4776393513049835e-04  4.5445327359714474e-03  8.0869762458630895e-03  1.1376869921323285e-02  1.4394399455382671e-02  1.7143292295979870e-02  1.9632600676442142e-02  2.1868002502089433e-02  2.3856049807198073e-02  2.5613816377599633e-02  2.7143553016029869e-02  2.8459969609059561e-02  2.9595250296952497e-02  3.0538587502578027e-02  3.1320492585913698e-02  3.1954960107166620e-02  3.2449924323328085e-02  3.2826764245216654e-02  3.3089411489489871e-02  3.3267918028084369e-02  3.3352918321081129e-02  3.3364085017162079e-02  3.3305612930270970e-02  3.3184512239284633e-02  3.3009142840228593e-02  3.2787795988791057e-02  3.2523828766714655e-02  3.2217544668913314e-02  3.1875378370922129e-02  3.1497690256642931e-02  3.1086823088538402e-02  3.0643631013621005e-02  3.0168386704812013e-02  2.9661350010455102e-02  2.9122354532646264e-02  2.8550135507421134e-02  2.7944870939214075e-02  2.7304047227237307e-02  2.6626276369474594e-02  2.5912453634891988e-02  2.5157771522686855e-02  2.4360267328306394e-02  2.3523962981127380e-02  2.2639579380439825e-02  2.1713784270168950e-02  2.0736489931578089e-02  1.9716078072406731e-02  1.8645070267730438e-02  1.7519752014542738e-02  1.6350335302976512e-02  1.5123147198462776e-02  1.3849122008823388e-02  1.2522451609462710e-02  1.1142113281483325e-02  9.7083250526512881e-03  8.2231172991474866e-03  6.6895381477668952e-03  5.0981991511439579e-03  3.4669250522521796e-03  1.7797128489273550e-03  0.0000000000000000e+00  0.0000000000000000e+00  0.0000000000000000e+00  0.0000000000000000e+00  0.0000000000000000e+00  0.0000000000000000e+00  0.0000000000000000e+00  0.0000000000000000e+00  0.0000000000000000e+00  1.9276564415284061e-03  3.7290685013438561e-03  5.5041701170011692e-03  7.2267894860793495e-03  8.9007554982486921e-03  1.0524905552042932e-02  1.2098418986757441e-02  1.3619634317938804e-02  1.5085731367156387e-02  1.6494620045572013e-02  1.7842367620729681e-02  1.9126617400293252e-02  2.0342383614964422e-02  2.1486765279296400e-02  2.2554976177326602e-02  2.3540598915197299e-02  2.4443204772728065e-02  2.5251756133085404e-02  2.5961593799285587e-02  2.6566584318673998e-02  2.7059932081761745e-02  2.7434969569933482e-02  2.7686245017242057e-02  2.7803293683163924e-02  2.7784276176348217e-02  2.7618261600100395e-02  2.7303127525007971e-02  2.6827799617125815e-02  2.6187406986864840e-02  2.5379251519838830e-02  2.4392533174349314e-02  2.3221325321028247e-02  2.1879836868005955e-02  2.0352383600019078e-02  1.8612562133568902e-02  1.6699799083100202e-02  1.4588670713634953e-02  1.2280266374613517e-02  9.7747829066170064e-03  7.0801072739292018e-03  4.1872339720081878e-03  1.1098707071373836e-03  -2.1589794430694228e-03  -5.6083509440823763e-03  -9.2482289818103074e-03  -1.3063135837883487e-02  -1.7052863250017994e-02  -2.1208908178069915e-02  -2.5533601942115743e-02  -3.0013499761756060e-02  -3.4646279163196618e-02  -3.9420937618782674e-02  -4.4325437847051015e-02  -4.9351664925207227e-02  -5.4484515438882740e-02  -5.9702559549672921e-02  -6.4951750746370454e-02  -7.0272245240524375e-02  -7.5586081277334280e-02  -8.0837887387116961e-02  -8.6029817208166381e-02  -9.1094323095052401e-02  -9.6013603392352778e-02  -1.0068524490350621e-01  -1.0510461342333524e-01  -1.0916563031051749e-01  -1.1285692307356780e-01  -1.1607184088197366e-01  -1.1881387539828861e-01  -1.2095264952426905e-01  -1.2250126542496750e-01  -1.2338484438247981e-01  -1.2346839723758261e-01  -1.2291640151913376e-01  -1.2157971362150188e-01  -1.1945540124196996e-01  -1.1665125746571235e-01  -1.1318115629567892e-01  -1.0917036606687745e-01  -1.0468758301088560e-01  -9.9728565865397870e-02  -9.4438653626213162e-02  -8.8859284538713529e-02  -8.3091822015539801e-02  -7.7140735649657954e-02  -7.1036804581057225e-02  -6.4837857621437983e-02  -5.8558407872285938e-02  -5.2210735380495463e-02  -4.5821046405921322e-02  -3.9395031479224005e-02  -3.2953055471368425e-02  -2.6498390288993263e-02  -2.0033918060220684e-02  -1.3572359536377547e-02  -7.1151077264374613e-03  -6.6352811914472396e-04  5.7785059228243505e-03  1.2207545341958689e-02  1.8622289787508978e-02  2.5022154572476512e-02  3.1405430032881120e-02  3.7771898421239514e-02  4.4119764435384685e-02  5.0449413590521047e-02  5.6760033025582982e-02  6.3051313688656074e-02  6.9323141770999797e-02  7.5575168005680690e-02  8.1807328759107276e-02  8.8019577845511995e-02  9.4211801575553644e-02  1.0038396283480601e-01  1.0653605459057111e-01  1.1266808207999197e-01  1.1878001425152121e-01  1.2487192288275734e-01  1.3094382302735755e-01  1.3699573944896709e-01  1.4302772584300719e-01  1.4903981304246758e-01  1.5503201979923240e-01  1.5503168692617608e-01  1.5503087397380294e-01  1.5502959783664652e-01  1.5502804774814166e-01  1.5502649606016533e-01  1.5502521725573079e-01  1.5502439888623998e-01  1.5502406720891151e-01  -1.5143187133737857e-01  -1.8399737714781503e-01  -1.6401095883229944e-01  -1.4968889918327782e-01  -1.3865955234902330e-01  -1.2775383610843030e-01  -1.1698440814251625e-01  -1.0595598293554624e-01  -9.4536293669878868e-02  -8.5365336375452752e-02  -7.5277628642311911e-02  -6.5362916338268184e-02  -5.4805705961611106e-02  -4.3686933611161806e-02  -3.1964616126002071e-02  -1.3939365262003833e-01  -1.2268156073594409e-01  -1.0275362919714143e-01  -8.0142789552875654e-02  -5.7380031481410486e-02  -3.4955114174298606e-02  -1.7730267951684711e-01  -1.2111789957101494e-01  -1.4940062343097188e-02  1.7232589754502712e-03  1.5361694590166635e-02  -1.6469860876622910e-01  2.4658899575697234e-02  -1.9607493500390594e-02  2.9702374530141917e-02  -6.2593201586133773e-03  3.2423914755415145e-02  -1.1044844660723745e-01  -9.2927855309180588e-02  3.3237765161689470e-02  -7.2504847735134006e-02  7.5637268434588945e-03  -4.6449456316102471e-02  3.2816413557853280e-02  2.2432370855343720e-02  -1.5708007694023560e-01  3.1619186600767721e-02  -2.3153337755327054e-02  -1.2273246209548387e-01  3.7840356671050464e-02  2.9866885179394030e-02  -4.7723303856235825e-04  5.5341546896301795e-02  8.2875420429919990e-03  2.7560385549111378e-02  1.5734476500644266e-02  7.2634539018547301e-02  -1.1773707462590986e-01  2.4774112112160671e-02  2.1098840918776313e-02  -1.0680442196301920e-01  2.4884903019132404e-02  2.1205828742411777e-02  -9.1636724390251278e-02  9.2835915316119774e-02  1.0685347553188006e-01  -1.1057471398660595e-02  1.8051874757421895e-02  1.4311331341000506e-02  2.6990669117899716e-02  -7.4288793282678775e-02  2.7637197272859116e-02  -1.5651365840239626e-01  -4.9453900641092535e-02  2.6714212882602641e-02  1.2430557396519450e-01  -2.9763106393364859e-02  1.0396689032030502e-02  2.3926689385669164e-02  -1.0222722411784286e-02  1.5582128646589314e-02  2.0848049816796988e-02  4.7285294352605450e-02  1.7111608655944126e-02  6.6243543435865179e-02  8.5019465245723139e-02  1.2816677635409350e-02  1.1661837044318828e-01  1.6186613433772268e-03  1.4944816193739929e-01  -1.5984125952777631e-01  8.1622161174203251e-03  5.7706854433199973e-03  1.3442077637544128e-01  -1.7120821260520175e-01  -1.5916687380028810e-01  -1.1682729710776814e-01  -6.1603831853398135e-02  2.0643298416728063e-03  2.7881902830843176e-02  1.3475991210798977e-01  -3.7160418366351276e-02  -6.1621515541626141e-02  -8.2813149873818159e-02  -1.0223610399924811e-01  8.2897756827691141e-02  2.7601318928333805e-02  6.3722960927716177e-02  9.7260456925399474e-02  2.5520867467571411e-02  2.3075691441214369e-02  4.6018330285289150e-02  2.6161317672753769e-02  2.8795416689363564e-02  3.0476788200484446e-02  3.0809136978235466e-02  3.2298776549680608e-02  3.3155517064352893e-02  3.3043556971251956e-02  -2.4785803941213453e-02  1.4880418251273831e-02  3.1353638994984320e-02  2.7504392014709961e-02  4.8529093894519079e-04  2.0615930790683398e-02  9.3550661124953381e-03  -5.7319058413613762e-03  1.3497070190286950e-03  -1.3450357712954350e-02  -2.5404169783741878e-02  1.4978767199780438e-01  -3.7590962578908933e-02  -4.9314578614739479e-02  -6.0143493123471392e-02  -7.0558907651865316e-02  -8.0398967742280364e-02  -8.9755594156305449e-02  -1.4589119860173225e-01  -1.0134063184964005e-01  -1.1247355238490465e-01  -1.2340956520215694e-01  -1.3160738852101700e-01  -1.3435485632527416e-01  -9.1935239927249612e-02  -1.1260975014186056e-01  -6.9723423500771223e-02  -4.6136597165521875e-02  -1.4528907039752972e-01  -1.6901624726870901e-01  1.6964635616576055e-03  1.4929160882460280e-01  4.5468178449425706e-03  -1.5960786847924952e-01  1.5003943681116971e-01  1.3763120043887029e-03  1.4593603863159663e-01  -1.5957158669944904e-01  -1.5923084126706477e-01  -1.5876417462090955e-01  -1.5927150645339211e-01  -1.5878748376166080e-01  -1.5962309469812180e-01  -1.5895695591252276e-01  -1.6007635076427856e-01  -1.5923929503331755e-01  -1.6039415957682371e-01  -1.5943815086412993e-01  -1.6031420847671896e-01  -1.5916163464823146e-01  -1.5967612698985903e-01  -1.5838382301596948e-01  -1.5859242858577041e-01  -1.5712046204538635e-01  -1.5713123093842252e-01  -1.5548531277144356e-01  -1.5514264103186740e-01  -1.5317333939874136e-01  -1.5686694943996887e-01  -1.5362270036533271e-01  -1.5091725750362237e-01  -1.5425196679629888e-01  -1.5628728518524454e-01  -1.5114963325100456e-01  -1.4828891029444377e-01  -1.4844701772186833e-01  -1.4521583919678113e-01  -1.4525859011367728e-01  -1.4170580211868755e-01  -1.4166284658992795e-01  -1.3803057226727905e-01  -1.3765577895712172e-01  -1.3329740066072246e-01  -1.3302241233651096e-01  -1.2883636799941309e-01  -1.2814246009377975e-01  -1.2379848993796540e-01  -1.2286173562262880e-01  -1.1843650809284618e-01  -1.1726921521014218e-01  -1.1281321220182858e-01  -1.1137507087888347e-01  -1.0695965533973459e-01  -1.0521505735438851e-01  -1.0089599481447063e-01  -9.8857069736486503e-02  -9.4700673104477467e-02  -9.2322329966175398e-02  -8.8415546984572616e-02  -8.5563495350701319e-02  -1.5264536757402652e-01  -1.5458238997463702e-01  -8.2064529555363877e-02  -7.8785596164079111e-02  -7.5715591127599693e-02  -7.2440387595943637e-02  -6.9482913985271580e-02  -6.5849119155230201e-02  -6.3360549813831393e-02  -5.9397464120506074e-02  -1.4726996391972180e-01  -5.7460631972748324e-02  -5.3076248123754229e-02  -5.1524578265737406e-02  -4.6908815547774353e-02  -4.5950430715287260e-02  -4.1030044184407422e-02  -1.5015086427989119e-01  -1.5234466213416464e-01  -1.6081687217387386e-01  -4.0562273179811828e-02  -3.5363820920798955e-02  -3.5458202950906313e-02  -2.9994207451204336e-02  -3.0619919450083386e-02  -2.4948385344864901e-02  -1.5777324812003676e-01  -2.6062794793663038e-02  -2.0194450416869143e-02  -1.3742795970282079e-01  -2.1771208682897416e-02  -1.5775431826692606e-02  -1.7772643549807943e-02  -1.1680989207730804e-02  -1.3981417441333816e-02  -7.9000843263753485e-03  -1.5774419376777477e-01  -1.2379221464953977e-01  -1.0524384516937374e-02  -4.4301188332258106e-03  -1.4678521124463287e-01  -1.4831417326455565e-01  -1.4495905356564584e-01  -1.0774195413550125e-01  -7.2540239568691135e-03  -1.1104542981987583e-03  -4.3222921510836232e-03  1.8605345484420987e-03  -1.5346983642618407e-03  4.4251193295579607e-03  -3.5963128128981586e-02  1.8289748025896813e-03  -1.9340488798456967e-02  -5.5153644475987459e-02  1.0484340296160934e-03  6.7748832804298744e-03  1.0160269224486710e-02  1.2337551580360078e-02  8.9744635767736343e-03  1.4299024647318781e-02  1.1050952900353421e-02  1.6129275038324759e-02  1.2923872210380962e-02  1.7718136262171891e-02  1.4639107557590441e-02  1.9185298158966798e-02  1.6254858263757364e-02  2.0472384596178388e-02  1.7654484908630766e-02  2.1650504747784179e-02  1.9054401546128932e-02  2.2822872834715287e-02  2.0301998385264228e-02  2.3783459611211470e-02  2.1477141971696215e-02  2.4615213188710270e-02  2.2413382282014109e-02  2.5372726186172197e-02  -7.5254320981828826e-02  -9.0605297319382327e-02  2.3369898643176706e-02  2.6007985705746538e-02  2.4273589250920737e-02  2.6612504118803219e-02  -1.4447930852389132e-01  -1.0915920912969421e-01  2.5074365196031251e-02  2.7106194292432020e-02  -1.2655289171524151e-01  -7.3227844524773031e-02  -1.4251004705181683e-01  -1.4366746242641792e-01  -1.5032188640625718e-01  -1.4455349356954733e-01  -1.5027518987268410e-01  -1.4476439874618430e-01  -1.5097291238430063e-01  -1.4446412826358532e-01  -1.4898440633227858e-01  -1.4310291540183015e-01  -1.4778268147084608e-01  -1.4126800411298376e-01  -1.4440682783125058e-01  -1.3866961480599818e-01  -1.4106366454580674e-01  -1.3578468025689436e-01  -1.3747203873100025e-01  -1.3253871555124314e-01  -1.3373489775849928e-01  -1.2913872479218033e-01  -1.2989980084400682e-01  -1.2559282955505699e-01  -1.2604554678428420e-01  -1.2199085885942838e-01  -1.2218043955353439e-01  -1.1839299724941883e-01  -1.1799012730810791e-01  -1.1448670571751178e-01  -1.1451964096910676e-01  -1.1091416178610751e-01  -1.1078330654440803e-01  -1.0730318453880100e-01  -1.0717955084092660e-01  -1.0373316160037536e-01  -1.0332568107895240e-01  -1.0009287215445356e-01  -1.3315750953214855e-01  -1.1045894947327350e-01  -1.2439558976113325e-01  -9.9606201597782246e-02  -9.6373016650294421e-02  -9.6608509140165319e-02  -9.3074572699472155e-02  -9.2612149103010605e-02  -8.9460050693684193e-02  -8.8805315082866904e-02  -8.5784867624981817e-02  -8.5013306063177058e-02  -8.2047359693323677e-02  -8.9184184348704856e-02  -1.5562649321916605e-01  -1.5001324661986046e-01  -8.1282403464573896e-02  -7.8254938486657377e-02  -7.8972174588819208e-02  -7.5191508976934246e-02  -7.4439036753562296e-02  -7.1431674278638238e-02  -7.0565566591728912e-02  -6.7643826136971619e-02  -1.4245456676921797e-01  -7.1920244905735092e-02  -6.6715327654432777e-02  -6.3870216142216954e-02  -1.3414240616637524e-01  -6.2979536120130686e-02  -6.0039051955886324e-02  -6.1199533807072153e-02  -5.7051086294889711e-02  -5.6099235035803205e-02  -5.3003623770596510e-02  -5.3910754529275753e-02  -4.9869274373339205e-02  -4.8973411206700367e-02  -4.5835248725421156e-02  -4.4927097485909506e-02  -4.1706963765743281e-02  -4.2639026399037938e-02  -3.8516633736602190e-02  -3.7551758955810685e-02  -3.4388504228720577e-02  -3.3459487569349043e-02  -3.0276999299381133e-02  -1.3944641597953150e-01  -1.1057113398437725e-01  -1.2582446949213813e-01  -2.9439672590861422e-02  -2.6196999580388156e-02  -2.7045779370838772e-02  -2.2813930390416483e-02  -2.1968331635329321e-02  -1.8587496684876238e-02  -2.3661331446663013e-02  2.5706592030713175e-02  2.7514834144796066e-02  2.6278546410187922e-02  2.7855822102467183e-02  2.6785111144422752e-02  2.8125859585136279e-02  -9.1981943863763668e-02  -4.5728475147241460e-02  -1.6065047992800166e-01  -1.7708128576165886e-02  -1.4395616062361361e-02  -1.0270783386936112e-01  2.3485825555019470e-02  2.7380822573672841e-02  1.5199641622502922e-02  2.7201138939117384e-02  2.8316172291391526e-02  2.9327609056619880e-02  2.9304126799259346e-02  2.8432751620884652e-02  2.9227994553500027e-02  2.8482366274082634e-02  2.9092991492987233e-02  2.8450646633641757e-02  2.8892233549785224e-02  2.8347252762033346e-02  2.8633218486541431e-02  2.8161077748038520e-02  2.8303122416150565e-02  2.7899723126962768e-02  2.7913923166838817e-02  2.7565880371271518e-02  2.7463750572269290e-02  2.7163199668958582e-02  2.6954630122325702e-02  2.6680652872708748e-02  2.6371794879185416e-02  2.6117139112933875e-02  2.5737676059732970e-02  2.5477693664032592e-02  2.5017557019810555e-02  2.4778286696416296e-02  2.4257216435170897e-02  2.3985021140065940e-02  2.3411901952087564e-02  2.3137747150155076e-02  2.2519258088089064e-02  2.9036298690734024e-02  -3.9515933034053041e-02  -7.3607245589098091e-02  -1.3392491120673316e-02  -1.0093835340978409e-02  -1.1087258590552828e-02  -6.6350848621633965e-03  -7.6726512558764571e-03  -3.1179487505573842e-03  -2.1992251865075091e-03  1.3369339927697772e-03  2.3765850860452738e-03  5.8844997140092420e-03  4.9421956733334922e-03  9.4774067931531775e-03  1.0278578536316727e-02  1.3977854119447051e-02  1.4765969525990973e-