<?xml version="1.0"?>
<VTKFile type="UnstructuredGrid"  version="0.1"  >
<UnstructuredGrid>
<Piece  NumberOfPoints="2886" NumberOfCells="5412">
<Points>
<DataArray  type="Float64"  NumberOfComponents="3"  format="ascii">0 0.1 0  0.98 0.1 0  1 0.1 0  1 0 0  1.5 0 0  3 0 0  3 0.3 0  0 0.3 0  0.01975375321854102 0.1 0  0.03918897458218897 0.1 0  0.05831079002627837 0.1 0  0.07712425666319796 0.1 0  0.0956343475259058 0.1 0  0.1138459546796227 0.1 0  0.1317638870668193 0.1 0  0.1493928840275937 0.1 0  0.1667376092280033 0.1 0  0.1838026357802664 0.1 0  0.2005924801287244 0.1 0  0.2171115811543574 0.1 0  0.2333643037107681 0.1 0  0.2493549444060462 0.1 0  0.2650877293306821 0.1 0  0.2805668058011438 0.1 0  0.2957962848620976 0.1 0  0.3107801766802674 0.1 0  0.3255224447361181 0.1 0  0.3400269848175519 0.1 0  0.3542976327080778 0.1 0  0.3683381609158136 0.1 0  0.3821522744564845 0.1 0  0.3957436316838916 0.1 0  0.4091158196437086 0.1 0  0.4222723742184605 0.1 0  0.4352167733293057 0.1 0  0.4479524348643424 0.1 0  0.4604827295467524 0.1 0  0.4728109659990664 0.1 0  0.4849404035409129 0.1 0  0.4968742471455402 0.1 0  0.508615651843175 0.1 0  0.520167721130924 0.1 0  0.5315335063628542 0.1 0  0.5427160117228604 0.1 0  0.5537181940261912 0.1 0  0.564542961924507 0.1 0  0.575193173270606 0.1 0  0.5856716438765114 0.1 0  0.5959811458006617 0.1 0  0.6061243988680743 0.1 0  0.6161040893285659 0.1 0  0.6259228503970299 0.1 0  0.6355832809287655 0.1 0  0.6450879281079505 0.1 0  0.6544393102991295 0.1 0  0.663639896558931 0.1 0  0.6726921201956305 0.1 0  0.6815983691630338 0.1 0  0.6903610031396646 0.1 0  0.6989823343332418 0.1 0  0.7074646404270378 0.1 0  0.7158101645005117 0.1 0  0.7240211149852543 0.1 0  0.7320996585612525 0.1 0  0.7400479319727645 0.1 0  0.7478680336617921 0.1 0  0.755562036504958 0.1 0  0.7631319665092091 0.1 0  0.7705798279317605 0.1 0  0.777907588066146 0.1 0  0.7851171851013118 0.1 0  0.7922105226004981 0.1 0  0.7991894774550319 0.1 0  0.8060558928136696 0.1 0  0.812811583201334 0.1 0  0.8194583352091183 0.1 0  0.8259979035038147 0.1 0  0.8324320194413813 0.1 0  0.8387623808293405 0.1 0  0.8449906627004957 0.1 0  0.8511185094880469 0.1 0  0.8571475426008311 0.1 0  0.8630793533568246 0.1 0  0.8689155114558531 0.1 0  0.8746575581239063 0.1 0  0.8803070109173519 0.1 0  0.885865363938836 0.1 0  0.8913340851680313 0.1 0  0.8967146206523592 0.1 0  0.9020083930695622 0.1 0  0.9072167995950768 0.1 0  0.9123412183131177 0.1 0  0.9173830029719022 0.1 0  0.9223434865647732 0.1 0  0.9272239785872722 0.1 0  0.9320257720706087 0.1 0  0.9367501330378739 0.1 0  0.9413983102716995 0.1 0  0.9459715351562933 0.1 0  0.9504710127113115 0.1 0  0.9548979346500661 0.1 0  0.9592534708344373 0.1 0  0.9635387708980176 0.1 0  0.9677549682252325 0.1 0  0.971903177251235 0.1 0  0.9759844952956497 0.1 0  0.9840000000000086 0.1 0  0.987999999999974 0.1 0  0.9919999999999393 0.1 0  0.9959999999999913 0.1 0  1 0.09591793123533533 0  1 0.09133596463859224 0  1 0.08619288104391448 0  1 0.08041996484521211 0  1 0.07394008421771697 0  1 0.06666666567302955 0  1 0.05850252932209174 0  1 0.04933859630113544 0  1 0.03905242821848202 0  1 0.02750659386753798 0  1 0.01454683679239736 0  1.015625 0 0  1.03125 0 0  1.046875 0 0  1.0625 0 0  1.078125 0 0  1.09375 0 0  1.109375 0 0  1.125 0 0  1.140625 0 0  1.15625 0 0  1.171875 0 0  1.1875 0 0  1.203125 0 0  1.21875 0 0  1.234375 0 0  1.25 0 0  1.265625 0 0  1.28125 0 0  1.296875 0 0  1.3125 0 0  1.328125 0 0  1.34375 0 0  1.359375 0 0  1.375 0 0  1.390625 0 0  1.40625 0 0  1.421875 0 0  1.4375 0 0  1.453125 0 0  1.46875 0 0  1.484375 0 0  1.515920751924515 0 0  1.531989369316721 0 0  1.54820720925872 0 0  1.564575665560501 0 0  1.581096138674279 0 0  1.597770029901263 0 0  1.614598783332311 0 0  1.631583831055205 0 0  1.64872661129721 0 0  1.666028606716533 0 0  1.683491276608443 0 0  1.701116134125304 0 0  1.718904673324128 0 0  1.736858414799339 0 0  1.754978895814663 0 0  1.773267661782904 0 0  1.791726281103402 0 0  1.810356325314689 0 0  1.8291593848892 0 0  1.848137076690385 0 0  1.867291007717254 0 0  1.886622833871288 0 0  1.90613418642363 0 0  1.925826753299799 0 0  1.945702199101513 0 0  1.96576223584749 0 0  1.986008569283268 0 0  2.006442931928877 0 0  2.02706707547783 0 0  2.047882750887917 0 0  2.06889175187935 0 0  2.090095860038271 0 0  2.111496891648636 0 0  2.133096679109554 0 0  2.154897066851056 0 0  2.176899916687499 0 0  2.199107102752146 0 0  2.22152053937028 0 0  2.244142122958061 0 0  2.266973806444078 0 0  2.290017523268154 0 0  2.313275249499252 0 0  2.336748971745516 0 0  2.360440702338606 0 0  2.384352453384031 0 0  2.408486280477412 0 0  2.432844240041185 0 0  2.457428414757088 0 0  2.482240901796653 0 0  2.507283830121838 0 0  2.532559332080812 0 0  2.558069568787417 0 0  2.583816724966441 0 0  2.60980299606584 0 0  2.636030600971886 0 0  2.662501790984011 0 0  2.689218818279327 0 0  2.716183964547616 0 0  2.743399548861297 0 0  2.77086788244719 0 0  2.798591312896326 0 0  2.826572223178268 0 0  2.854812990138617 0 0  2.883316031690714 0 0  2.912083780657189 0 0  2.941118704633482 0 0  2.970423276998917 0 0  3 0.02999999999994495 0  3 0.05999999999987042 0  3 0.089999999999783 0  3 0.119999999999701 0  3 0.149999999999619 0  3 0.179999999999692 0  3 0.2099999999997737 0  3 0.2399999999998511 0  3 0.2699999999999185 0  2.970138294777171 0.3 0  2.940375666438236 0.3 0  2.910711782853056 0.3 0  2.881146331305122 0.3 0  2.851678975030285 0.3 0  2.822309388626621 0.3 0  2.793037250095074 0.3 0  2.76386223529133 0.3 0  2.734784017903872 0.3 0  2.705802289276642 0.3 0  2.676916713794697 0.3 0  2.648126987654635 0.3 0  2.619432780406184 0.3 0  2.590833779385199 0.3 0  2.562329669847737 0.3 0  2.533920134950189 0.3 0  2.505604855727852 0.3 0  2.477383539822502 0.3 0  2.449255847639465 0.3 0  2.421221492569094 0.3 0  2.393280152486815 0.3 0  2.36543151914496 0.3 0  2.337675285481809 0.3 0  2.310011142385583 0.3 0  2.282438797441587 0.3 0  2.254957931061538 0.3 0  2.227568248063605 0.3 0  2.200269436651085 0.3 0  2.173061204949961 0.3 0  2.145943251515011 0.3 0  2.118915272469994 0.3 0  2.091976978084957 0.3 0  2.065128060700849 0.3 0  2.038368218849433 0.3 0  2.01169717777258 0.3 0  1.985114624111908 0.3 0  1.958620267850966 0.3 0  1.93221382054972 0.3 0  1.905894991850698 0.3 0  1.879663489459713 0.3 0  1.853519019126419 0.3 0  1.827461291053897 0.3 0  1.801490031354372 0.3 0  1.775604937580312 0.3 0  1.74980572560258 0.3 0  1.724092118631866 0.3 0  1.698463829173586 0.3 0  1.672920575782554 0.3 0  1.647462076974085 0.3 0  1.622088043536933 0.3 0  1.5967981978949 0.3 0  1.571592267767068 0.3 0  1.546469970305736 0.3 0  1.521431023814044 0.3 0  1.496475156230927 0.3 0  1.471602093687753 0.3 0  1.446811560490646 0.3 0  1.422103279101731 0.3 0  1.397476971708191 0.3 0  1.37293238939876 0.3 0  1.348469231419202 0.3 0  1.324087248732772 0.3 0  1.299786165921677 0.3 0  1.275565710847046 0.3 0  1.251425617644257 0.3 0  1.227365618676339 0.3 0  1.203385446174014 0.3 0  1.179484853067473 0.3 0  1.155663548773374 0.3 0  1.131921292279077 0.3 0  1.108257802159295 0.3 0  1.084672829009693 0.3 0  1.061166115303374 0.3 0  1.037737392995421 0.3 0  1.01438640299116 0.3 0  0.991112899770314 0.3 0  0.9679166155523955 0.3 0  0.944797284182564 0.3 0  0.921754678526042 0.3 0  0.8987885143602501 0.3 0  0.8758985548820624 0.3 0  0.8530845484099929 0.3 0  0.8303462351786988 0.3 0  0.8076833651172373 0.3 0  0.7850956864865304 0.3 0  0.7625829601354557 0.3 0  0.7401449314598274 0.3 0  0.717781337993959 0.3 0  0.6954919649675473 0.3 0  0.6732765357561226 0.3 0  0.6511348120768439 0.3 0  0.6290665642016573 0.3 0  0.6070715355430467 0.3 0  0.5851494825775325 0.3 0  0.5633001690203812 0.3 0  0.5415233562273221 0.3 0  0.5198187909431873 0.3 0  0.4981862401387795 0.3 0  0.4766254686134248 0.3 0  0.4551362360485234 0.3 0  0.4337182975262159 0.3 0  0.4123714223228037 0.3 0  0.3910953802377493 0.3 0  0.3698899313205595 0.3 0  0.3487548463710963 0.3 0  0.3276898864081783 0.3 0  0.3066948129116018 0.3 0  0.2857694003037476 0.3 0  0.2649134227095047 0.3 0  0.2441266417321288 0.3 0  0.2234088223399122 0.3 0  0.2027597568977288 0.3 0  0.1821792020676698 0.3 0  0.1616669305402443 0.3 0  0.1412227158799362 0.3 0  0.12084633013886 0.3 0  0.1005375673448281 0.3 0  0.08029618164595353 0.3 0  0.06012194778526769 0.3 0  0.04001466495039718 0.3 0  0.01997408913631205 0.3 0  0 0.2800000000000553 0  0 0.2600000000001105 0  0 0.2400000000001658 0  0 0.2200000000002211 0  0 0.2000000000002764 0  0 0.1800000000002244 0  0 0.1600000000001691 0  0 0.140000000000115 0  0 0.1200000000000564 0  1.13346801534201 0.01255848438672509 0  1.003577645172735 0.09351054173913405 0  0.9777559943702486 0.1034978156913738 0  0.9524533750752109 0.1040889939962738 0  0.9296242411226409 0.1041520033606139 0  0.9046110503652111 0.104409422380137 0  0.8777709649694228 0.1053360318797398 0  0.8483859145648608 0.1061007868330701 0  0.8162363822948977 0.1052777104363292 0  0.7893110024210437 0.1060761643971561 0  0.7587949382612539 0.1067265405088633 0  0.7280603867732535 0.1069398153264939 0  0.6947001989413015 0.1075609887579097 0  0.6590363283767549 0.1076715322596598 0  0.6210028614493155 0.1072970410408442 0  1.1953125 0.01353164693413185 0  1.258193991486058 0.01269648635163345 0  1.3201967268638 0.01407907077719561 0  1.383538555392096 0.01434101079053473 0  1.445312500000001 0.01303671693628424 0  1.508925448095738 0.01398525724792267 0  0.9939176689634008 0.1034638089837981 0  1.120967497222226 0.2796788492172345 0  1.572835902117391 0.01424132418857359 0  1.637573277451887 0.01212536916586023 0  1.709730776795181 0.01466855431023635 0  1.005631976950563 0.07074019818158772 0  1.784944696816299 0.01454708406461822 0  0.5805605730631225 0.1101465090472147 0  1.855621181165637 0.01550931272897607 0  0.5366111276616774 0.1096761308243709 0  1.935200147913231 0.01760344159641829 0  1.214922267975168 0.2799787705802257 0  1.31178773425331 0.2792
[...]
<PointData  Scalars="pressure"> 
<DataArray  type="Float64"  Name="pressure"  format="ascii">1.5751067572301364e-01  -1.6582620587115221e-01  -2.1540927946986602e-01  -1.6134137443459093e-01  -4.1070664657904994e-02  0.0000000000000000e+00  0.0000000000000000e+00  1.5751789588456669e-01  1.5158455351024505e-01  1.4575392023204770e-01  1.4001720900364215e-01  1.3437289501827684e-01  1.2881946477288220e-01  1.2335543892737132e-01  1.1797938290416916e-01  1.1268982602052942e-01  1.0748537268897104e-01  1.0236463441601040e-01  9.7326205770070451e-02  9.2368737304561882e-02  8.7490914574151230e-02  8.2691374590838210e-02  7.7968819249033497e-02  7.3322034118390958e-02  6.8749623085378908e-02  6.4250393359455524e-02  5.9823102973025552e-02  5.5466451846743724e-02  5.1179275686159133e-02  4.6960445454193686e-02  4.2808610806149228e-02  3.8722691770532378e-02  3.4701400846037886e-02  3.0743639220520650e-02  2.6848363722034783e-02  2.3014303482181146e-02  1.9240279103159098e-02  1.5525242925239839e-02  1.1868064277532843e-02  8.2675499928399412e-03  4.7227068586807386e-03  1.2323004013261643e-03  -2.2046911903840375e-03  -5.5894457989915970e-03  -8.9230386449185087e-03  -1.2206149002453457e-02  -1.5440601844891979e-02  -1.8627017075517439e-02  -2.1766505700163273e-02  -2.4860358575386512e-02  -2.7909598347377936e-02  -3.0914664346951292e-02  -3.3877630486653904e-02  -3.6798980850539141e-02  -3.9679845154044116e-02  -4.2521366923898192e-02  -4.5324545995029879e-02  -4.8090438934099061e-02  -5.0820239393329886e-02  -5.3514891776244411e-02  -5.6175371995485363e-02  -5.8802642920348619e-02  -6.1398302865450741e-02  -6.3962738554174836e-02  -6.6497237849843391e-02  -6.9002466849660604e-02  -7.1480471449377567e-02  -7.3931697237400770e-02  -7.6356381241326293e-02  -7.8756295004531504e-02  -8.1133042555973409e-02  -8.3486318880105687e-02  -8.5818225760957878e-02  -8.8129509998214464e-02  -9.0420458014523294e-02  -9.2692690452221310e-02  -9.4947126637688437e-02  -9.7184715229217719e-02  -9.9407243736499090e-02  -1.0161480526785718e-01  -1.0380790160525730e-01  -1.0598719408669539e-01  -1.0815623299370124e-01  -1.1031410355242374e-01  -1.1246151284245476e-01  -1.1460040259080935e-01  -1.1673119391767314e-01  -1.1885488603589384e-01  -1.2097263206697288e-01  -1.2308639508021108e-01  -1.2519667442097154e-01  -1.2730374372557993e-01  -1.2941007160753332e-01  -1.3151662078981868e-01  -1.3362460294563736e-01  -1.3573549224905335e-01  -1.3785061577913066e-01  -1.3997174689905678e-01  -1.4210074298707817e-01  -1.4423969997593875e-01  -1.4639092751167337e-01  -1.4855603626511618e-01  -1.5073768867292853e-01  -1.5292704434842766e-01  -1.5530678620765254e-01  -1.5674609782298782e-01  -1.6060226281222362e-01  -1.5896221668573315e-01  -1.6378030870215929e-01  -1.6074900862848029e-01  -2.0303591175585708e-01  -1.8172044354115569e-01  -1.7515809389037057e-01  -1.7037772109339802e-01  -1.6714828756891145e-01  -1.6472405689050132e-01  -1.6290807787067607e-01  -1.6157763134543932e-01  -1.6077891135307690e-01  -1.6058353669483610e-01  -1.6098957637800493e-01  -1.6178182357967313e-01  -1.6215632484618112e-01  -1.6195043145613136e-01  -1.6127920487721581e-01  -1.6023321662495107e-01  -1.5885624597366196e-01  -1.5713341922481344e-01  -1.5505205462349891e-01  -1.5264134101300975e-01  -1.4991878839455228e-01  -1.4688854430554088e-01  -1.4356450212061464e-01  -1.3995793775658938e-01  -1.3608107752770035e-01  -1.3195444032009657e-01  -1.2759110319757214e-01  -1.2300362466518396e-01  -1.1821043110965990e-01  -1.1323046326916214e-01  -1.0807451714439729e-01  -1.0277236115019937e-01  -9.7342333690606686e-02  -9.1800306767569340e-02  -8.6176867113763975e-02  -8.0490305469888404e-02  -7.4769904733211351e-02  -6.9037811481387309e-02  -6.3316349992804125e-02  -5.7636841006291725e-02  -5.2019882770837911e-02  -4.6491092958656582e-02  -3.5683195191000668e-02  -3.0412990516018219e-02  -2.5269430039025452e-02  -2.0286116000129514e-02  -1.5489516656194892e-02  -1.0881866353832320e-02  -6.4893961362467792e-03  -2.3172722939284636e-03  1.5862390893296556e-03  5.2449493815126562e-03  8.6586867780618290e-03  1.1806464806283931e-02  1.4690491449302397e-02  1.7317719091144823e-02  1.9692032690421132e-02  2.1818416239075485e-02  2.3712105791812762e-02  2.5373604737132301e-02  2.6817019806601075e-02  2.8072675672609588e-02  2.9129072055460961e-02  3.0016077182218538e-02  3.0747158289877216e-02  3.1330222953390892e-02  3.1786483322786899e-02  3.2120200360846375e-02  3.2362403496851287e-02  3.2503482315155242e-02  3.2564285016918326e-02  3.2549615886730832e-02  3.2467158507091504e-02  3.2326238817013485e-02  3.2136033934316785e-02  3.1900573185192578e-02  3.1620501353379890e-02  3.1302961504961251e-02  3.0948563441112256e-02  3.0559990425309786e-02  3.0138254856950659e-02  2.9683721184760710e-02  2.9196724207285127e-02  2.8677143695906102e-02  2.8123693469397467e-02  2.7536674106772584e-02  2.6913529522787603e-02  2.6252930495597310e-02  2.5556026013039412e-02  2.4817944828934745e-02  2.4036722261251722e-02  2.3216818468470755e-02  2.2348631331245802e-02  2.1439331993738372e-02  2.0478383155951949e-02  1.9474732771699726e-02  1.8420574298952139e-02  1.7312160278403765e-02  1.6160015621153639e-02  1.4949948677933533e-02  1.3693378104565172e-02  1.2384204031997708e-02  1.1021433216831239e-02  9.6050496325916189e-03  8.1371887313210090e-03  6.6210429804808109e-03  5.0472195344971578e-03  3.4332545567841537e-03  1.7630041140379563e-03  0.0000000000000000e+00  0.0000000000000000e+00  0.0000000000000000e+00  0.0000000000000000e+00  0.0000000000000000e+00  0.0000000000000000e+00  0.0000000000000000e+00  0.0000000000000000e+00  0.0000000000000000e+00  1.9105134032548093e-03  3.6941962387428179e-03  5.4501230915032931e-03  7.1531147526024651e-03  8.8069157758030800e-03  1.0410218102664414e-02  1.1962071057811245e-02  1.3460754220581964e-02  1.4903410234363212e-02  1.6287819360317281e-02  1.7609990245861927e-02  1.8867439521942631e-02  2.0055120953794869e-02  2.1170049566262485e-02  2.2207424315841634e-02  2.3160663101518330e-02  2.4029415100265485e-02  2.4802590519023650e-02  2.5475562699212615e-02  2.6042216835770880e-02  2.6495723788132298e-02  2.6829486383054452e-02  2.7037875451725382e-02  2.7110121901945030e-02  2.7044743151184204e-02  2.6829925715016963e-02  2.6463551607640939e-02  2.5934282489052624e-02  2.5237008396172857e-02  2.4369057492572701e-02  2.3319678768705575e-02  2.2083370244570889e-02  2.0675060419781569e-02  1.9080332936652986e-02  1.7273236146042016e-02  1.5293710377797485e-02  1.3118754829730997e-02  1.0748935940610849e-02  8.1857301637322955e-03  5.4367555396995790e-03  2.4930595707819288e-03  -6.3151544977077621e-04  -3.9454074664023635e-03  -7.4380094996543047e-03  -1.1120480412558698e-02  -1.4976824764637046e-02  -1.9008307852678312e-02  -2.3205659202155105e-02  -2.7572122171344589e-02  -3.2093502662557859e-02  -3.6766870254972592e-02  -4.1580619119573815e-02  -4.6521222300109778e-02  -5.1579938441849896e-02  -5.6741007517979690e-02  -6.1980836800089083e-02  -6.7240562968710019e-02  -7.2566669151259366e-02  -7.7874302982809243e-02  -8.3104664519195459e-02  -8.8261980477300175e-02  -9.3275295936258704e-02  -9.8126177464123526e-02  -1.0270944595792338e-01  -1.0701931449413236e-01  -1.1094754448318901e-01  -1.1448258362099509e-01  -1.1751504903568313e-01  -1.2004948857836377e-01  -1.2195437927106732e-01  -1.2324506543193736e-01  -1.2384918251715207e-01  -1.2363759435928497e-01  -1.2278091877200775e-01  -1.2114155183339982e-01  -1.1872593143716161e-01  -1.1565019202002262e-01  -1.1193633879536062e-01  -1.0771038322006965e-01  -1.0304140514306151e-01  -9.7929113424131409e-02  -9.2511500725915977e-02  -8.6828217256970611e-02  -8.0973402935036368e-02  -7.4951622537872895e-02  -6.8791424523969705e-02  -6.2546118793806504e-02  -5.6228982665712260e-02  -4.9851387850691799e-02  -4.3437330356002106e-02  -3.6992019776888582e-02  -3.0534092338265983e-02  -2.4066514975681373e-02  -1.7591930050949417e-02  -1.1121946266748331e-02  -4.6578182560332920e-03  1.7992057986725427e-03  8.2456029604463382e-03  1.4678230638707197e-02  2.1095918616820156e-02  2.7498135756544452e-02  3.3883333509877225e-02  4.0251317279488066e-02  4.6600463695136644e-02  5.2931126787853534e-02  5.9242575837068059e-02  6.5534535137101141e-02  7.1806908191595645e-02  7.8059383397224930e-02  8.4291910125593755e-02  9.0504452497104981e-02  9.6696913112389288e-02  1.0286926515426943e-01  1.0902150845207244e-01  1.1515365411360133e-01  1.2126568040315756e-01  1.2735765816098071e-01  1.3342960784545699e-01  1.3948155832118742e-01  1.4551356384185815e-01  1.5152565928637127e-01  1.5751786796677114e-01  1.5751756778000714e-01  1.5751683482532097e-01  1.5751568438642213e-01  1.5751428704420711e-01  1.5751288826053292e-01  1.5751173541734606e-01  1.5751099757792145e-01  1.5751069846747492e-01  -1.5348427666350786e-01  -1.8616236510838943e-01  -1.5905057255131458e-01  -1.4534964372881451e-01  -1.3478321525833312e-01  -1.2421965616950879e-01  -1.1370926798499395e-01  -1.0288550237337798e-01  -9.1627145424066567e-02  -8.2554673362440933e-02  -7.2550691439950285e-02  -6.2698225204078889e-02  -5.2190277081514108e-02  -4.1109229386733025e-02  -2.9415078711519507e-02  -1.4162013545928973e-01  -1.2517364966316583e-01  -1.0556278230218054e-01  -8.3272751605144107e-02  -6.0745105733098388e-02  -3.8404631887226787e-02  -1.7173945084625675e-01  -1.2201806445836491e-01  -1.8274141060579598e-02  -1.3002352941211589e-03  1.2838509467495988e-02  -1.6662385170600758e-01  2.2702805005735387e-02  -1.7078273949401444e-02  2.8217725902493964e-02  -3.7449684462087856e-03  3.1335008230959846e-02  -1.1215490106592305e-01  -9.5071467510041321e-02  3.2416474455119186e-02  -7.4788497660875281e-02  1.0068050878710650e-02  -4.8649913966084826e-02  3.2142647776442865e-02  2.4929869355392459e-02  -1.5906064209079201e-01  3.1054243341322806e-02  -2.5158663927108280e-02  -1.2274891950696658e-01  4.0333462118485784e-02  2.9389149365160978e-02  -2.2317990995414263e-03  5.7831703020660499e-02  6.6754183573517704e-03  2.7160127925583519e-02  1.4305773733115201e-02  7.5123032830289010e-02  -1.1689186691772492e-01  2.4440240883305535e-02  1.9866106448681229e-02  -1.0526428998046836e-01  2.3851209562392801e-02  2.0938683012233540e-02  -8.9664386977187802e-02  9.5323352375452600e-02  1.0934050773854058e-01  -1.2940093101677432e-02  1.7835428893904819e-02  1.4148713146427839e-02  2.6127997341832982e-02  -7.2076815157854274e-02  2.6970320305826002e-02  -1.5181103718676975e-01  -4.7085743734442673e-02  2.6170186308935261e-02  1.2679233145929367e-01  -2.7338581937965577e-02  1.0284550901368716e-02  2.3528612052286860e-02  -7.7691533329865836e-03  1.8054194838682185e-02  2.0545216942896270e-02  4.9766428622016509e-02  1.6891116666884986e-02  6.8727011743448821e-02  8.7504176885164139e-02  1.2668061875248464e-02  1.1910399567955354e-01  1.6016955721631146e-03  1.5193433054455752e-01  -1.6177584952024510e-01  8.0759174592856461e-03  5.7120681095243712e-03  1.3690657734743233e-01  -1.7316340538743485e-01  -1.6112191467034689e-01  -1.1817875836393303e-01  -5.9294879120579382e-02  4.5286612691242808e-03  3.0358590385787573e-02  1.3724658841581833e-01  -3.9292391679026317e-02  -6.3895586709658281e-02  -8.5058390599205641e-02  -1.0420711541204081e-01  8.5385623990299031e-02  2.6838768076121809e-02  6.6212196725877331e-02  9.9745648270084628e-02  2.5052753279211696e-02  2.2775262904667370e-02  4.8509853227254082e-02  2.5796921107543686e-02  2.8357157242874669e-02  3.2971735063930238e-02  3.0289397063205881e-02  3.1683495578242918e-02  3.2408623738394177e-02  3.2108362851684259e-02  -2.8205117818047798e-02  1.7380985549104562e-02  3.0082659202459807e-02  2.5792816990764099e-02  2.9942327879601497e-03  1.8380017121294102e-02  6.5762754062404401e-03  -8.9237193621776959e-03  1.3366975183152650e-03  -1.0928794249332298e-02  -2.2866400702667315e-02  1.5227413524682196e-01  -3.5029018722727630e-02  -4.6719332883345531e-02  -5.7505035163255371e-02  -6.7863604173646133e-02  -7.7632338092730166e-02  -8.6900582943940138e-02  -1.4802083174369113e-01  -9.8341208579981201e-02  -1.0928951114710246e-01  -1.1998798226831373e-01  -1.3395581563778838e-01  -1.3062517254461456e-01  -9.4905985949094038e-02  -1.1526429302239459e-01  -7.2975010333189219e-02  -4.9566552331578750e-02  -1.4115308975327556e-01  -1.6116139628046558e-01  1.6792609599051819e-03  1.5177752766768507e-01  4.5016114317830043e-03  -1.6155282889931030e-01  1.5252605671986486e-01  1.3633372049361829e-03  1.4842187976487417e-01  -1.6152020907103434e-01  -1.6118167886117221e-01  -1.6072137211318863e-01  -1.6122233809052827e-01  -1.6074439420214864e-01  -1.6157312838842519e-01  -1.6091399605361639e-01  -1.6202681327670854e-01  -1.6119714813526745e-01  -1.6234751964391261e-01  -1.6139914419205476e-01  -1.6227284211635107e-01  -1.6112916640087840e-01  -1.6163957399487358e-01  -1.6035834936821267e-01  -1.6055302519540668e-01  -1.5909627834138287e-01  -1.5907452380362988e-01  -1.5744916522000466e-01  -1.5704133545755167e-01  -1.5511230986363198e-01  -1.5872282417953762e-01  -1.5562094890345862e-01  -1.5289846412925048e-01  -1.5602133353786049e-01  -1.5797783116405709e-01  -1.5317903725499432e-01  -1.5031502230073623e-01  -1.5051773317992506e-01  -1.4729173214855923e-01  -1.4737684221836553e-01  -1.4383429257664884e-01  -1.4383558109491171e-01  -1.4022162859692769e-01  -1.3989062580160891e-01  -1.3555442637967430e-01  -1.3532730268903184e-01  -1.3116850275019981e-01  -1.3052252365109307e-01  -1.2620606577241539e-01  -1.2532226441001013e-01  -1.2092108575430222e-01  -1.1981287312886002e-01  -1.1537463234150096e-01  -1.1400291665532873e-01  -1.0959655007095929e-01  -1.0792646898268658e-01  -1.0360308497950381e-01  -1.0164831339065060e-01  -9.7472868156741388e-02  -9.5183439527662186e-02  -9.1243859296268048e-02  -8.8500294145110403e-02  -1.5420691202593820e-01  -1.5599105414459544e-01  -8.4934265740426632e-02  -8.1771051118016094e-02  -7.8622314156002585e-02  -7.5467032815207682e-02  -7.2404643805655977e-02  -6.8903377830839094e-02  -6.6285196309225719e-02  -6.2463153837199775e-02  -1.4922428625608167e-01  -6.0376844284539544e-02  -5.6137731998016173e-02  -5.4385576777443247e-02  -4.9944158596769525e-02  -4.8798940318801380e-02  -4.4029841053171655e-02  -1.5142619330648230e-01  -1.5336128823230213e-01  -1.6277243940195524e-01  -4.3355432214023194e-02  -3.8309759602652933e-02  -3.8185746642531250e-02  -3.2870159003894055e-02  -3.3270924267478547e-02  -2.7742164951561999e-02  -1.5928844501708372e-01  -2.8628596247068355e-02  -2.2893520539157958e-02  -1.3954268981174278e-01  -2.4244690241104008e-02  -1.8371067100666997e-02  -2.0150787340114152e-02  -1.4167099458444727e-02  -1.6265201996625043e-02  -1.0272431990164742e-02  -1.5972471685811557e-01  -1.2612782289744040e-01  -1.2710901497038461e-02  -6.6879072222945429e-03  -1.4771296538997958e-01  -1.4893089540355889e-01  -1.4613298144606862e-01  -1.1029515262104363e-01  -9.3462003340272007e-03  -3.2541601878365366e-03  -6.3215971557055179e-03  -1.7108497677788585e-04  -3.4476159867008090e-03  2.4993923666108116e-03  -3.9100324613148309e-02  -4.9457607850595037e-04  -2.2263886789213112e-02  -5.8342469288325441e-02  -7.8467975975683908e-04  4.9480960614963548e-03  8.2233116307550772e-03  1.0516755225901403e-02  7.2392611808118719e-03  1.2586325451250858e-02  9.4001216295070203e-03  1.4518807035498493e-02  1.1351306761342553e-02  1.6202970367528501e-02  1.3138715169419203e-02  1.7755190429963631e-02  1.4820938220267551e-02  1.9119960938889714e-02  1.6280360694115051e-02  2.0367410751510731e-02  1.7738218647320076e-02  2.1606432291081674e-02  1.9040237684027645e-02  2.2624991467127129e-02  2.0266818044087368e-02  2.3510667765402313e-02  2.1249145443819561e-02  2.4317249354590131e-02  -7.8335504771150713e-02  -9.3316459401949867e-02  2.2252989623317211e-02  2.4998508872679584e-02  2.3204589525404835e-02  2.5646380947158952e-02  -1.4662455853407194e-01  -1.1184424908944146e-01  2.4052268847037692e-02  2.6182052576864366e-02  -1.2897243423334045e-01  -7.6027896991409355e-02  -1.4309244142551639e-01  -1.4388713806643610e-01  -1.5049289129050433e-01  -1.4432169509013512e-01  -1.4985320218527393e-01  -1.4403621094880512e-01  -1.4987785400069251e-01  -1.4320656296144207e-01  -1.4729313062659491e-01  -1.4136526418970247e-01  -1.4555139298843620e-01  -1.3912063881208667e-01  -1.4177733239363807e-01  -1.3621162057294323e-01  -1.3817229657827715e-01  -1.3310453167882669e-01  -1.3443012677519653e-01  -1.2971876382255840e-01  -1.3061760317345678e-01  -1.2623963448240791e-01  -1.2675887251223616e-01  -1.2265575705194032e-01  -1.2291008194212029e-01  -1.1904095981274974e-01  -1.1906824658484656e-01  -1.1544627873865021e-01  -1.1491685702904875e-01  -1.1156650756932003e-01  -1.1174121010842650e-01  -1.0813148858820765e-01  -1.0787898932901742e-01  -1.0452186046313895e-01  -1.0428453387732170e-01  -1.0095547248096651e-01  -1.0045715348103408e-01  -9.7327021184974605e-02  -1.3094690423486327e-01  -1.0784049884370410e-01  -1.2170442812761301e-01  -9.6762676694446562e-02  -9.3620040389753148e-02  -9.3947645818212674e-02  -9.0413623968424034e-02  -8.9872488545922155e-02  -8.6798265386521425e-02  -8.6080074556750596e-02  -8.3127368993868078e-02  -8.2303130581810033e-02  -7.9399211541809275e-02  -8.6604375756498805e-02  -1.5496499408003614e-01  -1.4716376570001255e-01  -7.8587315594442417e-02  -7.5614432382982072e-02  -7.6385140443502822e-02  -7.2606075786525295e-02  -7.1805865880885597e-02  -6.8846027520126432e-02  -6.7940799185002010e-02  -6.5060742015062817e-02  -1.3912587987836683e-01  -6.9384349139234316e-02  -6.4099176096374277e-02  -6.1289789718308355e-02  -1.3078180579821824e-01  -6.0371781358500964e-02  -5.7463205537311948e-02  -5.8654610610834559e-02  -5.4506981549473928e-02  -5.3527658455996843e-02  -5.0459418488413885e-02  -5.1397817934291518e-02  -4.7351958143761752e-02  -4.6429647741136872e-02  -4.3314902151483876e-02  -4.2384533840681325e-02  -3.9184686398508452e-02  -4.0140555773319701e-02  -3.6013379698715868e-02  -3.5028554338584310e-02  -3.1881900473061157e-02  -3.0936458899546854e-02  -2.7768396638339441e-02  -1.3895208553480809e-01  -1.0756049601237079e-01  -1.2255698711037369e-01  -2.6917388083735890e-02  -2.3687183132526796e-02  -2.4550654616395707e-02  -2.0315881460190109e-02  -1.9458100664785514e-02  -1.6087217863951175e-02  -2.1178228334987240e-02  2.4726298213384595e-02  2.6629116120001736e-02  2.5340312481535465e-02  2.7008318044280003e-02  2.5888606175879934e-02  2.7315089119588569e-02  -8.9185289824181724e-02  -4.8359541180873961e-02  -1.6259600383687428e-01  -1.5197945435707421e-02  -1.1894074401622400e-02  -9.9776199183190833e-02  2.2125166554645914e-02  2.6369299547314162e-02  1.3260262488635726e-02  2.6345479640122082e-02  2.7540742496021755e-02  2.8596413446860043e-02  2.8603424597372574e-02  2.7691407669800765e-02  2.8557489463542023e-02  2.7774613947757668e-02  2.8452181765102769e-02  2.7775170498964174e-02  2.8279414379047241e-02  2.7703396368442931e-02  2.8048358958791805e-02  2.7547765647479586e-02  2.7745492394169402e-02  2.7315832785034595e-02  2.7382972360252687e-02  2.7011258815288406e-02  2.6958865537534769e-02  2.6637404651255862e-02  2.6475620937751437e-02  2.6183883415681466e-02  2.5918004052941930e-02  2.5648665261045801e-02  2.5309088112902056e-02  2.5036449919034164e-02  2.4613263789490959e-02  2.4364483060001912e-02  2.3877424534933731e-02  2.3598931840906008e-02  2.3056009779774303e-02  2.2776845142724742e-02  2.2187105719974613e-02  2.8205386218976627e-02  -3.7036581009403033e-02  -7.0936321015525064e-02  -1.0882813382920629e-02  -7.5916506375187263e-03  -8.5938692810176732e-03  -4.1399892643854599e-03  -5.1865883432953216e-03  -6.2922511980388412e-04  2.9707690255538851e-04  3.8276087489514206e-03  4.8735712356173470e-03  8.3765942954033921e-03  7.4280308071292605e-03  1.1965178519670230e-02  1.2771572749310900e-02  1.6467063125370149e-02  1.725940885444681