<?xml version="1.0"?>
<VTKFile type="UnstructuredGrid"  version="0.1"  >
<UnstructuredGrid>
<Piece  NumberOfPoints="2886" NumberOfCells="5412">
<Points>
<DataArray  type="Float64"  NumberOfComponents="3"  format="ascii">0 0.1 0  0.98 0.1 0  1 0.1 0  1 0 0  1.5 0 0  3 0 0  3 0.3 0  0 0.3 0  0.01975375321854102 0.1 0  0.03918897458218897 0.1 0  0.05831079002627837 0.1 0  0.07712425666319796 0.1 0  0.0956343475259058 0.1 0  0.1138459546796227 0.1 0  0.1317638870668193 0.1 0  0.1493928840275937 0.1 0  0.1667376092280033 0.1 0  0.1838026357802664 0.1 0  0.2005924801287244 0.1 0  0.2171115811543574 0.1 0  0.2333643037107681 0.1 0  0.2493549444060462 0.1 0  0.2650877293306821 0.1 0  0.2805668058011438 0.1 0  0.2957962848620976 0.1 0  0.3107801766802674 0.1 0  0.3255224447361181 0.1 0  0.3400269848175519 0.1 0  0.3542976327080778 0.1 0  0.3683381609158136 0.1 0  0.3821522744564845 0.1 0  0.3957436316838916 0.1 0  0.4091158196437086 0.1 0  0.4222723742184605 0.1 0  0.4352167733293057 0.1 0  0.4479524348643424 0.1 0  0.4604827295467524 0.1 0  0.4728109659990664 0.1 0  0.4849404035409129 0.1 0  0.4968742471455402 0.1 0  0.508615651843175 0.1 0  0.520167721130924 0.1 0  0.5315335063628542 0.1 0  0.5427160117228604 0.1 0  0.5537181940261912 0.1 0  0.564542961924507 0.1 0  0.575193173270606 0.1 0  0.5856716438765114 0.1 0  0.5959811458006617 0.1 0  0.6061243988680743 0.1 0  0.6161040893285659 0.1 0  0.6259228503970299 0.1 0  0.6355832809287655 0.1 0  0.6450879281079505 0.1 0  0.6544393102991295 0.1 0  0.663639896558931 0.1 0  0.6726921201956305 0.1 0  0.6815983691630338 0.1 0  0.6903610031396646 0.1 0  0.6989823343332418 0.1 0  0.7074646404270378 0.1 0  0.7158101645005117 0.1 0  0.7240211149852543 0.1 0  0.7320996585612525 0.1 0  0.7400479319727645 0.1 0  0.7478680336617921 0.1 0  0.755562036504958 0.1 0  0.7631319665092091 0.1 0  0.7705798279317605 0.1 0  0.777907588066146 0.1 0  0.7851171851013118 0.1 0  0.7922105226004981 0.1 0  0.7991894774550319 0.1 0  0.8060558928136696 0.1 0  0.812811583201334 0.1 0  0.8194583352091183 0.1 0  0.8259979035038147 0.1 0  0.8324320194413813 0.1 0  0.8387623808293405 0.1 0  0.8449906627004957 0.1 0  0.8511185094880469 0.1 0  0.8571475426008311 0.1 0  0.8630793533568246 0.1 0  0.8689155114558531 0.1 0  0.8746575581239063 0.1 0  0.8803070109173519 0.1 0  0.885865363938836 0.1 0  0.8913340851680313 0.1 0  0.8967146206523592 0.1 0  0.9020083930695622 0.1 0  0.9072167995950768 0.1 0  0.9123412183131177 0.1 0  0.9173830029719022 0.1 0  0.9223434865647732 0.1 0  0.9272239785872722 0.1 0  0.9320257720706087 0.1 0  0.9367501330378739 0.1 0  0.9413983102716995 0.1 0  0.9459715351562933 0.1 0  0.9504710127113115 0.1 0  0.9548979346500661 0.1 0  0.9592534708344373 0.1 0  0.9635387708980176 0.1 0  0.9677549682252325 0.1 0  0.971903177251235 0.1 0  0.9759844952956497 0.1 0  0.9840000000000086 0.1 0  0.987999999999974 0.1 0  0.9919999999999393 0.1 0  0.9959999999999913 0.1 0  1 0.09591793123533533 0  1 0.09133596463859224 0  1 0.08619288104391448 0  1 0.08041996484521211 0  1 0.07394008421771697 0  1 0.06666666567302955 0  1 0.05850252932209174 0  1 0.04933859630113544 0  1 0.03905242821848202 0  1 0.02750659386753798 0  1 0.01454683679239736 0  1.015625 0 0  1.03125 0 0  1.046875 0 0  1.0625 0 0  1.078125 0 0  1.09375 0 0  1.109375 0 0  1.125 0 0  1.140625 0 0  1.15625 0 0  1.171875 0 0  1.1875 0 0  1.203125 0 0  1.21875 0 0  1.234375 0 0  1.25 0 0  1.265625 0 0  1.28125 0 0  1.296875 0 0  1.3125 0 0  1.328125 0 0  1.34375 0 0  1.359375 0 0  1.375 0 0  1.390625 0 0  1.40625 0 0  1.421875 0 0  1.4375 0 0  1.453125 0 0  1.46875 0 0  1.484375 0 0  1.515920751924515 0 0  1.531989369316721 0 0  1.54820720925872 0 0  1.564575665560501 0 0  1.581096138674279 0 0  1.597770029901263 0 0  1.614598783332311 0 0  1.631583831055205 0 0  1.64872661129721 0 0  1.666028606716533 0 0  1.683491276608443 0 0  1.701116134125304 0 0  1.718904673324128 0 0  1.736858414799339 0 0  1.754978895814663 0 0  1.773267661782904 0 0  1.791726281103402 0 0  1.810356325314689 0 0  1.8291593848892 0 0  1.848137076690385 0 0  1.867291007717254 0 0  1.886622833871288 0 0  1.90613418642363 0 0  1.925826753299799 0 0  1.945702199101513 0 0  1.96576223584749 0 0  1.986008569283268 0 0  2.006442931928877 0 0  2.02706707547783 0 0  2.047882750887917 0 0  2.06889175187935 0 0  2.090095860038271 0 0  2.111496891648636 0 0  2.133096679109554 0 0  2.154897066851056 0 0  2.176899916687499 0 0  2.199107102752146 0 0  2.22152053937028 0 0  2.244142122958061 0 0  2.266973806444078 0 0  2.290017523268154 0 0  2.313275249499252 0 0  2.336748971745516 0 0  2.360440702338606 0 0  2.384352453384031 0 0  2.408486280477412 0 0  2.432844240041185 0 0  2.457428414757088 0 0  2.482240901796653 0 0  2.507283830121838 0 0  2.532559332080812 0 0  2.558069568787417 0 0  2.583816724966441 0 0  2.60980299606584 0 0  2.636030600971886 0 0  2.662501790984011 0 0  2.689218818279327 0 0  2.716183964547616 0 0  2.743399548861297 0 0  2.77086788244719 0 0  2.798591312896326 0 0  2.826572223178268 0 0  2.854812990138617 0 0  2.883316031690714 0 0  2.912083780657189 0 0  2.941118704633482 0 0  2.970423276998917 0 0  3 0.02999999999994495 0  3 0.05999999999987042 0  3 0.089999999999783 0  3 0.119999999999701 0  3 0.149999999999619 0  3 0.179999999999692 0  3 0.2099999999997737 0  3 0.2399999999998511 0  3 0.2699999999999185 0  2.970138294777171 0.3 0  2.940375666438236 0.3 0  2.910711782853056 0.3 0  2.881146331305122 0.3 0  2.851678975030285 0.3 0  2.822309388626621 0.3 0  2.793037250095074 0.3 0  2.76386223529133 0.3 0  2.734784017903872 0.3 0  2.705802289276642 0.3 0  2.676916713794697 0.3 0  2.648126987654635 0.3 0  2.619432780406184 0.3 0  2.590833779385199 0.3 0  2.562329669847737 0.3 0  2.533920134950189 0.3 0  2.505604855727852 0.3 0  2.477383539822502 0.3 0  2.449255847639465 0.3 0  2.421221492569094 0.3 0  2.393280152486815 0.3 0  2.36543151914496 0.3 0  2.337675285481809 0.3 0  2.310011142385583 0.3 0  2.282438797441587 0.3 0  2.254957931061538 0.3 0  2.227568248063605 0.3 0  2.200269436651085 0.3 0  2.173061204949961 0.3 0  2.145943251515011 0.3 0  2.118915272469994 0.3 0  2.091976978084957 0.3 0  2.065128060700849 0.3 0  2.038368218849433 0.3 0  2.01169717777258 0.3 0  1.985114624111908 0.3 0  1.958620267850966 0.3 0  1.93221382054972 0.3 0  1.905894991850698 0.3 0  1.879663489459713 0.3 0  1.853519019126419 0.3 0  1.827461291053897 0.3 0  1.801490031354372 0.3 0  1.775604937580312 0.3 0  1.74980572560258 0.3 0  1.724092118631866 0.3 0  1.698463829173586 0.3 0  1.672920575782554 0.3 0  1.647462076974085 0.3 0  1.622088043536933 0.3 0  1.5967981978949 0.3 0  1.571592267767068 0.3 0  1.546469970305736 0.3 0  1.521431023814044 0.3 0  1.496475156230927 0.3 0  1.471602093687753 0.3 0  1.446811560490646 0.3 0  1.422103279101731 0.3 0  1.397476971708191 0.3 0  1.37293238939876 0.3 0  1.348469231419202 0.3 0  1.324087248732772 0.3 0  1.299786165921677 0.3 0  1.275565710847046 0.3 0  1.251425617644257 0.3 0  1.227365618676339 0.3 0  1.203385446174014 0.3 0  1.179484853067473 0.3 0  1.155663548773374 0.3 0  1.131921292279077 0.3 0  1.108257802159295 0.3 0  1.084672829009693 0.3 0  1.061166115303374 0.3 0  1.037737392995421 0.3 0  1.01438640299116 0.3 0  0.991112899770314 0.3 0  0.9679166155523955 0.3 0  0.944797284182564 0.3 0  0.921754678526042 0.3 0  0.8987885143602501 0.3 0  0.8758985548820624 0.3 0  0.8530845484099929 0.3 0  0.8303462351786988 0.3 0  0.8076833651172373 0.3 0  0.7850956864865304 0.3 0  0.7625829601354557 0.3 0  0.7401449314598274 0.3 0  0.717781337993959 0.3 0  0.6954919649675473 0.3 0  0.6732765357561226 0.3 0  0.6511348120768439 0.3 0  0.6290665642016573 0.3 0  0.6070715355430467 0.3 0  0.5851494825775325 0.3 0  0.5633001690203812 0.3 0  0.5415233562273221 0.3 0  0.5198187909431873 0.3 0  0.4981862401387795 0.3 0  0.4766254686134248 0.3 0  0.4551362360485234 0.3 0  0.4337182975262159 0.3 0  0.4123714223228037 0.3 0  0.3910953802377493 0.3 0  0.3698899313205595 0.3 0  0.3487548463710963 0.3 0  0.3276898864081783 0.3 0  0.3066948129116018 0.3 0  0.2857694003037476 0.3 0  0.2649134227095047 0.3 0  0.2441266417321288 0.3 0  0.2234088223399122 0.3 0  0.2027597568977288 0.3 0  0.1821792020676698 0.3 0  0.1616669305402443 0.3 0  0.1412227158799362 0.3 0  0.12084633013886 0.3 0  0.1005375673448281 0.3 0  0.08029618164595353 0.3 0  0.06012194778526769 0.3 0  0.04001466495039718 0.3 0  0.01997408913631205 0.3 0  0 0.2800000000000553 0  0 0.2600000000001105 0  0 0.2400000000001658 0  0 0.2200000000002211 0  0 0.2000000000002764 0  0 0.1800000000002244 0  0 0.1600000000001691 0  0 0.140000000000115 0  0 0.1200000000000564 0  1.13346801534201 0.01255848438672509 0  1.003577645172735 0.09351054173913405 0  0.9777559943702486 0.1034978156913738 0  0.9524533750752109 0.1040889939962738 0  0.9296242411226409 0.1041520033606139 0  0.9046110503652111 0.104409422380137 0  0.8777709649694228 0.1053360318797398 0  0.8483859145648608 0.1061007868330701 0  0.8162363822948977 0.1052777104363292 0  0.7893110024210437 0.1060761643971561 0  0.7587949382612539 0.1067265405088633 0  0.7280603867732535 0.1069398153264939 0  0.6947001989413015 0.1075609887579097 0  0.6590363283767549 0.1076715322596598 0  0.6210028614493155 0.1072970410408442 0  1.1953125 0.01353164693413185 0  1.258193991486058 0.01269648635163345 0  1.3201967268638 0.01407907077719561 0  1.383538555392096 0.01434101079053473 0  1.445312500000001 0.01303671693628424 0  1.508925448095738 0.01398525724792267 0  0.9939176689634008 0.1034638089837981 0  1.120967497222226 0.2796788492172345 0  1.572835902117391 0.01424132418857359 0  1.637573277451887 0.01212536916586023 0  1.709730776795181 0.01466855431023635 0  1.005631976950563 0.07074019818158772 0  1.784944696816299 0.01454708406461822 0  0.5805605730631225 0.1101465090472147 0  1.855621181165637 0.01550931272897607 0  0.5366111276616774 0.1096761308243709 0  1.935200147913231 0.01760344159641829 0  1.214922267975168 0.2799787705802257 0  1.31178773425331 0.2792
[...]
<PointData  Scalars="pressure"> 
<DataArray  type="Float64"  Name="pressure"  format="ascii">1.5785997001808358e-01  -1.6556621292062895e-01  -2.1520880900915637e-01  -1.6109607111551222e-01  -4.0081175185609920e-02  0.0000000000000000e+00  0.0000000000000000e+00  1.5786729924606493e-01  1.5193384788539169e-01  1.4610321373997107e-01  1.4036650031104964e-01  1.3472218276632830e-01  1.2916874730007444e-01  1.2370471455379273e-01  1.1832865001354971e-01  1.1303908248795257e-01  1.0783461646761135e-01  1.0271386322032532e-01  9.7675417015207669e-02  9.2717928098421276e-02  8.7840082014644563e-02  8.3040515149635119e-02  7.8317929246835588e-02  7.3671109920612876e-02  6.9098659772537360e-02  6.4599386107495285e-02  6.0172046567988864e-02  5.5815339949413172e-02  5.1528102292471477e-02  4.7309203833756600e-02  4.3157293030950852e-02  3.9071289756680998e-02  3.5049904887280187e-02  3.1092040473207114e-02  2.7196651661225403e-02  2.3362467207558375e-02  1.9588306092742421e-02  1.5873120468403310e-02  1.2215778731246628e-02  8.6150860895039989e-03  5.0700498983894515e-03  1.5794330182475013e-03  -1.8577870599282684e-03  -5.2427889730417279e-03  -8.5766475335126522e-03  -1.1860044917891919e-02  -1.5094809026324553e-02  -1.8281555135901798e-02  -2.1421403293199203e-02  -2.4515639269345076e-02  -2.7565287118905085e-02  -3.0570792037233421e-02  -3.3534225497996450e-02  -3.6456072984401615e-02  -3.9337466490890462e-02  -4.2179551582337160e-02  -4.4983326897747478e-02  -4.7749851779862032e-02  -5.0480322664464408e-02  -5.3175682209873336e-02  -5.5836908361087942e-02  -5.8464966095890206e-02  -6.1061456317844418e-02  -6.3626764107899317e-02  -6.6162179540927277e-02  -6.8668365086359484e-02  -7.1147385782712610e-02  -7.3599664968330175e-02  -7.6025450831166838e-02  -7.8426518469208104e-02  -8.0804473564738841e-02  -8.3159004491908398e-02  -8.5492227366605431e-02  -8.7804874157714541e-02  -9.0097239996104708e-02  -9.2370948477688508e-02  -9.4626918056182188e-02  -9.6866099966115893e-02  -9.9090277435523136e-02  -1.0129955743879139e-01  -1.0349441176506510e-01  -1.0567554198400078e-01  -1.0784647712797567e-01  -1.1000630237074541e-01  -1.1215573155889362e-01  -1.1429670264825620e-01  -1.1642963980976390e-01  -1.1855553883467418e-01  -1.2067556324233047e-01  -1.2279166553583953e-01  -1.2490434714487139e-01  -1.2701388279951395e-01  -1.2912274030289195e-01  -1.3123188128601826e-01  -1.3334251295971086e-01  -1.3545611057418275e-01  -1.3757399631206482e-01  -1.3969793967600336e-01  -1.4182979473811477e-01  -1.4397164988472769e-01  -1.4612579961348335e-01  -1.4829386085361360e-01  -1.5047849009682610e-01  -1.5267087595246129e-01  -1.5505324809514329e-01  -1.5649688501322079e-01  -1.6034462225455154e-01  -1.5870455941354872e-01  -1.6352696107321604e-01  -1.6049940518599290e-01  -2.0284028862898792e-01  -1.8150115862448160e-01  -1.7493234456548229e-01  -1.7014674887952169e-01  -1.6691350073501779e-01  -1.6448604328283664e-01  -1.6266723728909274e-01  -1.6133428520877011e-01  -1.6053370580918380e-01  -1.6033743254666499e-01  -1.6074374747283368e-01  -1.6153714548714659e-01  -1.6191200451573526e-01  -1.6170577296409025e-01  -1.6103364506882820e-01  -1.5998612782036903e-01  -1.5860678924339688e-01  -1.5688041673523806e-01  -1.5479405574833935e-01  -1.5237670845596399e-01  -1.4964567594841477e-01  -1.4660485173542445e-01  -1.4326793479079050e-01  -1.3964600112030620e-01  -1.3575110093610587e-01  -1.3160369163878918e-01  -1.2721676537782511e-01  -1.2260281067510759e-01  -1.1778029509153726e-01  -1.1276826100374146e-01  -1.0757750620188572e-01  -1.0223818182002745e-01  -9.6768849047004626e-02  -9.1185595106528433e-02  -8.5519563143394928e-02  -7.9789327785660169e-02  -7.4024870246796701e-02  -6.8248669293185876e-02  -6.2483661519048217e-02  -5.6761825037778713e-02  -5.1104254544909959e-02  -4.5537156664498923e-02  -3.4660867382773394e-02  -2.9361576557643841e-02  -2.4192881701842674e-02  -1.9189075697214508e-02  -1.4377000771989151e-02  -9.7588944791572995e-03  -5.3612699541437702e-03  -1.1893366854350677e-03  2.7080670115614044e-03  6.3555799243680995e-03  9.7532055981349643e-03  1.2880049785038138e-02  1.5738730202877544e-02  1.8336728262380638e-02  2.0678431387039981e-02  2.2769321302878565e-02  2.4625267329985087e-02  2.6247237445195255e-02  2.7649887925251769e-02  2.8864190972042597e-02  2.9878997230602698e-02  3.0724747873651915e-02  3.1415266306530000e-02  3.1958745385731721e-02  3.2376789266378145e-02  3.2673926137713957e-02  3.2881108258535609e-02  3.2989141252032478e-02  3.3018842322386686e-02  3.2975080265029183e-02  3.2865579435830482e-02  3.2699614608316149e-02  3.2486240952716641e-02  3.2229399944285191e-02  3.1929747539982144e-02  3.1594211777354581e-02  3.1223344497346803e-02  3.0819655876486964e-02  3.0384050978086379e-02  2.9916769866179325e-02  2.9418011903278203e-02  2.8887529865687281e-02  2.8323947981917414e-02  2.7727400328017980e-02  2.7095282317200001e-02  2.6426172113045338e-02  2.5721037560191826e-02  2.4975024577877019e-02  2.4186116616108363e-02  2.3358601069422360e-02  2.2482940627727231e-02  2.1566147283491186e-02  2.0597767480605267e-02  1.9586582006123444e-02  1.8524855458250819e-02  1.7408786387237293e-02  1.6248876699500987e-02  1.5030982517396005e-02  1.3766439033375294e-02  1.2449196147574299e-02  1.1078257431767585e-02  9.6536368256562068e-03  8.1775128653263935e-03  6.6530319667618730e-03  5.0708228257282349e-03  3.4486079392996938e-03  1.7700880138229154e-03  0.0000000000000000e+00  0.0000000000000000e+00  0.0000000000000000e+00  0.0000000000000000e+00  0.0000000000000000e+00  0.0000000000000000e+00  0.0000000000000000e+00  0.0000000000000000e+00  0.0000000000000000e+00  1.9240779058376544e-03  3.7203065017715809e-03  5.4889572313106651e-03  7.2046533487151497e-03  8.8711614473562603e-03  1.0487232622175838e-02  1.2051957773346859e-02  1.3563626269387643e-02  1.5019389453635885e-02  1.6417054346824288e-02  1.7752623569076628e-02  1.9023629659817503e-02  2.0225012715290536e-02  2.1353783381579037e-02  2.2405099978394606e-02  2.3372414608916054e-02  2.4255307706159142e-02  2.5042678931242995e-02  2.5729862000402084e-02  2.6310701254324411e-02  2.6778346081275824e-02  2.7126114965172123e-02  2.7348364122333622e-02  2.7434382074273490e-02  2.7382320223939660e-02  2.7180685922433983e-02  2.6827147555795100e-02  2.6310368226842611e-02  2.5625238489666018e-02  2.4769074778605394e-02  2.3731219899557003e-02  2.2506196242312697e-02  2.1108830027472911e-02  1.9524805207227311e-02  1.7728298335532893e-02  1.5759618836607217e-02  1.3595114612697025e-02  1.1236098122287356e-02  8.6838273729054373e-03  5.9460683427699041e-03  3.0139451328072813e-03  -9.8830076654922265e-05  -3.4004394365123830e-03  -6.8803363403744612e-03  -1.0549515334173420e-02  -1.4392647562362576e-02  -1.8410579801920322e-02  -2.2594767798624092e-02  -2.6948014467447792e-02  -3.1456690162458431e-02  -3.6118138428722787e-02  -4.0920931771777649e-02  -4.5852036395731613e-02  -5.0902781631431748e-02  -5.6057505426017978e-02  -6.1293141897536263e-02  -6.6552028584453513e-02  -7.1878125102762203e-02  -7.7188747061991206e-02  -8.2425256041155970e-02  -8.7590820961792507e-02  -9.2614996098721217e-02  -9.7478522133774753e-02  -1.0207639265670347e-01  -1.0640248069678276e-01  -1.1034799088232980e-01  -1.1390108789122839e-01  -1.1695208213244104e-01  -1.1950501689290062e-01  -1.2142814444664042e-01  -1.2273629570151422e-01  -1.2335728759133177e-01  -1.2316178824189371e-01  -1.2231968646014177e-01  -1.2069407715694663e-01  -1.1829111136308357e-01  -1.1522675029993250e-01  -1.1152316082639591e-01  -1.0730622409130396e-01  -1.0264537612414691e-01  -9.7540173793370336e-02  -9.2128632979974451e-02  -8.6450578759430435e-02  -8.0600290694797114e-02  -7.4582359535645473e-02  -6.8425398900465159e-02  -6.2182823504046081e-02  -5.5868025603259507e-02  -4.9492360428484580e-02  -4.3079926004661859e-02  -3.6635958786669053e-02  -3.0179162309632801e-02  -2.3712535052901162e-02  -1.7238722799288328e-02  -1.0769392978238193e-02  -4.3058164722275076e-03  2.1507576330485364e-03  8.5967828085498667e-03  1.5029100942069785e-02  2.1446527018514142e-02  2.7848529983287712e-02  3.4233548511822268e-02  4.0601388253167482e-02  4.6950410254507711e-02  5.3280973053943949e-02  5.9592337989886279e-02  6.5884227612388088e-02  7.2156543395776956e-02  7.8408970906746964e-02  8.4641457918570598e-02  9.0853967952453346e-02  9.7046402083816721e-02  1.0321873245313173e-01  1.0937095832417969e-01  1.1550309020537408e-01  1.2161510540899481e-01  1.2770707487190899e-01  1.3377901857093386e-01  1.3983096488528299e-01  1.4586296805290480e-01  1.5187506248250779e-01  1.5786727092782415e-01  1.5786696628369101e-01  1.5786622229927902e-01  1.5786505444370119e-01  1.5786363589166547e-01  1.5786221587593866e-01  1.5786104557952060e-01  1.5786029663754345e-01  1.5785999308747378e-01  -1.5322157918855098e-01  -1.8594596672282843e-01  -1.5879989741347975e-01  -1.4508382049310495e-01  -1.3450319877375755e-01  -1.2392671291921714e-01  -1.1340517428484653e-01  -1.0257169301952600e-01  -9.1304994324798730e-02  -8.2227117860956531e-02  -7.2218275014535663e-02  -6.2361989258170963e-02  -5.1850857245114769e-02  -4.0767235821562248e-02  -2.9071057391395403e-02  -1.4131498211231661e-01  -1.2478548899226515e-01  -1.0504893193999358e-01  -8.2594640189893223e-02  -5.9895391347281939e-02  -3.7402053010893888e-02  -1.7150350542663334e-01  -1.2149586710815805e-01  -1.7174555120621784e-02  -1.7855846836400672e-04  1.3896764625615555e-02  -1.6638762072455934e-01  2.3628526791277252e-02  -1.6732716774788176e-02  2.8993205705760201e-02  -3.3982183720732981e-03  3.1947211278476190e-02  -1.1156047606467853e-01  -9.4413923959810145e-02  3.2883368389227799e-02  -7.4099882824743973e-02  1.0415648742520239e-02  -4.7976955035977896e-02  3.2508207936309826e-02  2.5278075021744530e-02  -1.5881116163175962e-01  3.1339889984407773e-02  -2.4543041307126871e-02  -1.2227820852276799e-01  4.0682080776910705e-02  2.9618686755716935e-02  -1.6956451287010231e-03  5.8180613824477388e-02  7.1769973362765483e-03  2.7347701435169760e-02  1.4773473598458091e-02  7.5472116915487858e-02  -1.1646016537018640e-01  2.4595553858303996e-02  2.0302679237409898e-02  -1.0486283547707971e-01  2.4253947373085828e-02  2.1063106323581139e-02  -8.9283245490000371e-02  9.5672552398484739e-02  1.0968975414457725e-01  -1.2364649740765763e-02  1.7936888400294518e-02  1.4225623792563334e-02  2.6495534168858709e-02  -7.1708584119461044e-02  2.7285046225133069e-02  -1.5155380241729996e-01  -4.6727189998884061e-02  2.6444257650880511e-02  1.2714161044123998e-01  -2.6984003119778756e-02  1.0338015090278646e-02  2.3746658587275236e-02  -7.4168232140180016e-03  1.8404954340406222e-02  2.0721285888288345e-02  5.0116336699708060e-02  1.7026454286482223e-02  6.9076680606465671e-02  8.7853711628610401e-02  1.2764003355799520e-02  1.1945342592877502e-01  1.6119162933513442e-03  1.5228368921399202e-01  -1.6153207028185398e-01  8.1344491428598543e-03  5.7400416369610407e-03  1.3725598626921443e-01  -1.7293457645900265e-01  -1.6087595558399628e-01  -1.1762069585068440e-01  -5.8932491095854377e-02  4.8800960573617070e-03  3.0708926961134253e-02  1.3759587734457818e-01  -3.8638197465083568e-02  -6.3205996560776828e-02  -8.4380356258790049e-02  -1.0357811979983930e-01  8.5734776215067671e-02  2.7181099255415321e-02  6.6561202341095346e-02  1.0009512902426793e-01  2.5298831293131787e-02  2.2914947019432273e-02  4.8858626475751767e-02  2.5966734932359029e-02  2.8564605982091727e-02  3.3320177201536190e-02  3.0544639286646202e-02  3.2005620331265368e-02  3.2826542540988997e-02  3.2642118382645510e-02  -2.7146343095238074e-02  1.7728913680099413e-02  3.0775500348610301e-02  2.6645316227642279e-02  3.3414337800010247e-03  1.9377733223257247e-02  7.6750944445723480e-03  -7.8031295004764994e-03  1.3438212745244343e-03  -1.0582630356446682e-02  -2.2521498581119379e-02  1.5262345299909272e-01  -3.4685908786387977e-02  -4.6378553144151125e-02  -5.7167123798458397e-02  -6.7529275990809753e-02  -7.7302259132389986e-02  -8.6575506143879002e-02  -1.4774073049851932e-01  -9.8023790686529819e-02  -1.0898117082949819e-01  -1.1969033512587181e-01  -1.3361508427475369e-01  -1.3033985592994765e-01  -9.4315449221512110e-02  -1.1481549207776325e-01  -7.2217982639665612e-02  -4.8636526182888704e-02  -1.4088149103199052e-01  -1.6091353579557424e-01  1.6908177017481935e-03  1.5212692095857558e-01  4.5334323092757721e-03  -1.6130770852016268e-01  1.5287535286987045e-01  1.3696291601571547e-03  1.4877128364087844e-01  -1.6127490572443001e-01  -1.6093588333024195e-01  -1.6047485030706055e-01  -1.6097692606077268e-01  -1.6049832910465034e-01  -1.6132879318895782e-01  -1.6066882843129193e-01  -1.6178376774682582e-01  -1.6095312934641159e-01  -1.6210544948905276e-01  -1.6115603011883090e-01  -1.6203111572801640e-01  -1.6088619521754896e-01  -1.6139774932213347e-01  -1.6011502628852065e-01  -1.6031090981879403e-01  -1.5885193258571395e-01  -1.5883071177954219e-01  -1.5720119693046111e-01  -1.5678914812001765e-01  -1.5485333934874457e-01  -1.5847653954490784e-01  -1.5536840489973050e-01  -1.5263130746777234e-01  -1.5575955333901928e-01  -1.5772448477432266e-01  -1.5291870798097945e-01  -1.5003755389300699e-01  -1.5024870246401256e-01  -1.4700115716732637e-01  -1.4709623973810562e-01  -1.4352726562250534e-01  -1.4354033282284287e-01  -1.3989794721323845e-01  -1.3957788122469528e-01  -1.3520460941021523e-01  -1.3499158446733264e-01  -1.3079646511352322e-01  -1.3016127276830800e-01  -1.2580596725800325e-01  -1.2493159742416425e-01  -1.2048959071065141e-01  -1.1938925071444718e-01  -1.1490925046358988e-01  -1.1354301614332234e-01  -1.0909544337349035e-01  -1.0742739181742431e-01  -1.0306426037503993e-01  -1.0110784626337678e-01  -9.6895761358718399e-02  -9.4599671946327971e-02  -9.0628664742975984e-02  -8.7873100835390877e-02  -1.5392982380237663e-01  -1.5572297439499561e-01  -8.4281102187818827e-02  -8.1100226701949052e-02  -7.7933717143274239e-02  -7.4756985270142545e-02  -7.1683491718112446e-02  -6.8154941582348319e-02  -6.5535414324067967e-02  -6.1680101379367372e-02  -1.4893138726283142e-01  -5.9602664736067672e-02  -5.5324332937204193e-02  -5.3595763017754684e-02  -4.9106411972409773e-02  -4.7990900281164151e-02  -4.3172480126677432e-02  -1.5112854541237228e-01  -1.5307532969449666e-01  -1.6253161973608729e-01  -4.2538996220371772e-02  -3.7439219838004009e-02  -3.7366532178272113e-02  -3.1993150274866912e-02  -3.2454259212124456e-02  -2.6864970290657562e-02  -1.5903913010202739e-01  -2.7819917331932866e-02  -2.2022475254871995e-02  -1.3919758335192053e-01  -2.3448823328710174e-02  -1.7511906663747984e-02  -1.9371585158954333e-02  -1.3324913637869583e-02  -1.5504899498170860e-02  -9.4515765475590690e-03  -1.5947991109578924e-01  -1.2570801514656299e-01  -1.1973414116372972e-02  -5.8920601270819970e-03  -1.4739041894261976e-01  -1.4861874747599449e-01  -1.4579826645092223e-01  -1.0978194390579353e-01  -8.6329263524838121e-03  -2.4852273474865998e-03  -5.6354140965937972e-03  5.6818524799954930e-04  -2.7878186291786771e-03  3.2075036438589080e-03  -3.8188919241022821e-02  3.6616258615079962e-04  -2.1322707401867480e-02  -5.7520679320843197e-02  -1.5080781257395675e-04  5.6251571073057420e-03  8.9847413128772303e-03  1.1243071485362742e-02  7.8864417778641352e-03  1.3278095705468333e-02  1.0019145289910086e-02  1.5176341122991948e-02  1.1942627865058149e-02  1.6825833022218167e-02  1.3703585771500736e-02  1.8346376812219012e-02  1.5361536785009974e-02  1.9680770006941989e-02  1.6797701954270911e-02  2.0900254039773199e-02  1.8234789997864334e-02  2.2114075116307860e-02  1.9517201600505036e-02  2.3108573486253461e-02  2.0726234304121922e-02  2.3971707503911175e-02  2.1691744162540088e-02  2.4757936495866974e-02  -7.7640453683977748e-02  -9.2703988191963904e-02  2.2680684824791547e-02  2.5420338616494197e-02  2.3618418723221554e-02  2.6051393024194798e-02  -1.4634538158949148e-01  -1.1137910469972824e-01  2.4452873741949571e-02  2.6570967407663040e-02  -1.2861108462598192e-01  -7.5328216396248232e-02  -1.4274175653230362e-01  -1.4354785747800314e-01  -1.5019383242069323e-01  -1.4399295606766552e-01  -1.4955706923682438e-01  -1.4371545303621250e-01  -1.4959007573322664e-01  -1.4289235893222552e-01  -1.4700303571180603e-01  -1.4105409758452181e-01  -1.4526387015599876e-01  -1.3881156788734955e-01  -1.4148622474606484e-01  -1.3590272154793209e-01  -1.3787862430361217e-01  -1.3279539218024777e-01  -1.3413364389854723e-01  -1.2940850658959593e-01  -1.3031822029428672e-01  -1.2592794643472571e-01  -1.2645649729724376e-01  -1.2234228325826683e-01  -1.2260480248373072e-01  -1.1872569310691009e-01  -1.1876010541194763e-01  -1.1512923340448729e-01  -1.1460562831761027e-01  -1.1124694351371790e-01  -1.1141434577929546e-01  -1.0780379438221285e-01  -1.0755786360803692e-01  -1.0419340923087830e-01  -1.0396249442645056e-01  -1.0062641178147487e-01  -1.0013339204080400e-01  -9.6997035172070173e-02  -1.3061799362757698e-01  -1.0750356332896437e-01  -1.2137962887687508e-01  -9.6437375559603300e-02  -9.3289174117331577e-02  -9.3610948394132809e-02  -9.0076817350657964e-02  -8.9540786912480144e-02  -8.6461480836584503e-02  -8.5747508070389333e-02  -8.2790331427717134e-02  -8.1969673899302348e-02  -7.9061606728267814e-02  -8.6262093391735059e-02  -1.5469533943859534e-01  -1.4689013545036780e-01  -7.8252964262517655e-02  -7.5276389793772491e-02  -7.6043290807416689e-02  -7.2264160395798999e-02  -7.1467413258314280e-02  -6.8504196310797738e-02  -6.7601857627690068e-02  -6.4718799619081835e-02  -1.3884335619861154e-01  -6.9038837656542687e-02  -6.3759718222451703e-02  -6.0947734302382629e-02  -1.3048985747822206e-01  -6.0031807513636036e-02  -5.7120888733463576e-02  -5.8309883838444841e-02  -5.4162251350109082e-02  -5.3185098755922665e-02  -5.0114758786249165e-02  -5.1050645205354454e-02  -4.7005167801286420e-02  -4.6085016194134562e-02  -4.2968396488244999e-02  -4.2039868278143620e-02  -3.8838382263984970e-02  -3.9792248169254300e-02  -3.5665492645211863e-02  -3.4682372577442735e-02  -3.1534323083339061e-02  -3.0590305295621428e-02  -2.7421019147947170e-02  -1.3859960971686178e-01  -1.0724494763998552e-01  -1.2225655052941352e-01  -2.6571211034896302e-02  -2.3339940510763810e-02  -2.4202102202936889e-02  -1.9967603826610926e-02  -1.9110924219830797e-02  -1.5739159099852826e-02  -2.0828601132428171e-02  2.5115038422224178e-02  2.7003823021298560e-02  2.5717774652863533e-02  2.7369352058624792e-02  2.6255233372668885e-02  2.7663542013659424e-02  -8.8857223751910852e-02  -4.7591754992858885e-02  -1.6235353615392795e-01  -1.4850793894592667e-02  -1.1546150185232916e-02  -9.9456012539276453e-02  2.2744649354085208e-02  2.6833089214806885e-02  1.4071355635228718e-02  2.6701450345517266e-02  2.7877261333274027e-02  2.8927003393005298e-02  2.8920814109174735e-02  2.8016642002273204e-02  2.8862388327663118e-02  2.8088790629394487e-02  2.8745198914866196e-02  2.8078680291928369e-02  2.8561433339013176e-02  2.7996352826980309e-02  2.8319608322469159e-02  2.7830392333282980e-02  2.8006342831218212e-02  2.7588422518064173e-02  2.7633673042231625e-02  2.7273670962642455e-02  2.7199618254693674e-02  2.6889536981900216e-02  2.6706412836885646e-02  2.6425384393558564e-02  2.6138961566994509e-02  2.5879685109224393e-02  2.5520106266559959e-02  2.5257202359671844e-02  2.4814537615367647e-02  2.4574564838753966e-02  2.4068712184985026e-02  2.3797650849891418e-02  2.3237305931147933e-02  2.2965897858637563e-02  2.2358411299711195e-02  2.8582969819985104e-02  -3.6686660144963731e-02  -7.0600571421763444e-02  -1.0535643710427011e-02  -7.2438059962670713e-03  -8.2451956812775624e-03  -3.7914878038296683e-03  -4.8372245227025438e-03  -2.8011801738986086e-04  6.4544993793879248e-04  4.1765213730903953e-03  5.2218639653898403e-03  8.7253598079714400e-03  7.7774187779718479e-03  1.2314372295368426e-02  1.3120240144003504e-02  1.6816108154863740e-02  1.7608022280984483e