<?xml version="1.0"?>
<VTKFile type="UnstructuredGrid"  version="0.1"  >
<UnstructuredGrid>
<Piece  NumberOfPoints="2886" NumberOfCells="5412">
<Points>
<DataArray  type="Float64"  NumberOfComponents="3"  format="ascii">0 0.1 0  0.98 0.1 0  1 0.1 0  1 0 0  1.5 0 0  3 0 0  3 0.3 0  0 0.3 0  0.01975375321854102 0.1 0  0.03918897458218897 0.1 0  0.05831079002627837 0.1 0  0.07712425666319796 0.1 0  0.0956343475259058 0.1 0  0.1138459546796227 0.1 0  0.1317638870668193 0.1 0  0.1493928840275937 0.1 0  0.1667376092280033 0.1 0  0.1838026357802664 0.1 0  0.2005924801287244 0.1 0  0.2171115811543574 0.1 0  0.2333643037107681 0.1 0  0.2493549444060462 0.1 0  0.2650877293306821 0.1 0  0.2805668058011438 0.1 0  0.2957962848620976 0.1 0  0.3107801766802674 0.1 0  0.3255224447361181 0.1 0  0.3400269848175519 0.1 0  0.3542976327080778 0.1 0  0.3683381609158136 0.1 0  0.3821522744564845 0.1 0  0.3957436316838916 0.1 0  0.4091158196437086 0.1 0  0.4222723742184605 0.1 0  0.4352167733293057 0.1 0  0.4479524348643424 0.1 0  0.4604827295467524 0.1 0  0.4728109659990664 0.1 0  0.4849404035409129 0.1 0  0.4968742471455402 0.1 0  0.508615651843175 0.1 0  0.520167721130924 0.1 0  0.5315335063628542 0.1 0  0.5427160117228604 0.1 0  0.5537181940261912 0.1 0  0.564542961924507 0.1 0  0.575193173270606 0.1 0  0.5856716438765114 0.1 0  0.5959811458006617 0.1 0  0.6061243988680743 0.1 0  0.6161040893285659 0.1 0  0.6259228503970299 0.1 0  0.6355832809287655 0.1 0  0.6450879281079505 0.1 0  0.6544393102991295 0.1 0  0.663639896558931 0.1 0  0.6726921201956305 0.1 0  0.6815983691630338 0.1 0  0.6903610031396646 0.1 0  0.6989823343332418 0.1 0  0.7074646404270378 0.1 0  0.7158101645005117 0.1 0  0.7240211149852543 0.1 0  0.7320996585612525 0.1 0  0.7400479319727645 0.1 0  0.7478680336617921 0.1 0  0.755562036504958 0.1 0  0.7631319665092091 0.1 0  0.7705798279317605 0.1 0  0.777907588066146 0.1 0  0.7851171851013118 0.1 0  0.7922105226004981 0.1 0  0.7991894774550319 0.1 0  0.8060558928136696 0.1 0  0.812811583201334 0.1 0  0.8194583352091183 0.1 0  0.8259979035038147 0.1 0  0.8324320194413813 0.1 0  0.8387623808293405 0.1 0  0.8449906627004957 0.1 0  0.8511185094880469 0.1 0  0.8571475426008311 0.1 0  0.8630793533568246 0.1 0  0.8689155114558531 0.1 0  0.8746575581239063 0.1 0  0.8803070109173519 0.1 0  0.885865363938836 0.1 0  0.8913340851680313 0.1 0  0.8967146206523592 0.1 0  0.9020083930695622 0.1 0  0.9072167995950768 0.1 0  0.9123412183131177 0.1 0  0.9173830029719022 0.1 0  0.9223434865647732 0.1 0  0.9272239785872722 0.1 0  0.9320257720706087 0.1 0  0.9367501330378739 0.1 0  0.9413983102716995 0.1 0  0.9459715351562933 0.1 0  0.9504710127113115 0.1 0  0.9548979346500661 0.1 0  0.9592534708344373 0.1 0  0.9635387708980176 0.1 0  0.9677549682252325 0.1 0  0.971903177251235 0.1 0  0.9759844952956497 0.1 0  0.9840000000000086 0.1 0  0.987999999999974 0.1 0  0.9919999999999393 0.1 0  0.9959999999999913 0.1 0  1 0.09591793123533533 0  1 0.09133596463859224 0  1 0.08619288104391448 0  1 0.08041996484521211 0  1 0.07394008421771697 0  1 0.06666666567302955 0  1 0.05850252932209174 0  1 0.04933859630113544 0  1 0.03905242821848202 0  1 0.02750659386753798 0  1 0.01454683679239736 0  1.015625 0 0  1.03125 0 0  1.046875 0 0  1.0625 0 0  1.078125 0 0  1.09375 0 0  1.109375 0 0  1.125 0 0  1.140625 0 0  1.15625 0 0  1.171875 0 0  1.1875 0 0  1.203125 0 0  1.21875 0 0  1.234375 0 0  1.25 0 0  1.265625 0 0  1.28125 0 0  1.296875 0 0  1.3125 0 0  1.328125 0 0  1.34375 0 0  1.359375 0 0  1.375 0 0  1.390625 0 0  1.40625 0 0  1.421875 0 0  1.4375 0 0  1.453125 0 0  1.46875 0 0  1.484375 0 0  1.515920751924515 0 0  1.531989369316721 0 0  1.54820720925872 0 0  1.564575665560501 0 0  1.581096138674279 0 0  1.597770029901263 0 0  1.614598783332311 0 0  1.631583831055205 0 0  1.64872661129721 0 0  1.666028606716533 0 0  1.683491276608443 0 0  1.701116134125304 0 0  1.718904673324128 0 0  1.736858414799339 0 0  1.754978895814663 0 0  1.773267661782904 0 0  1.791726281103402 0 0  1.810356325314689 0 0  1.8291593848892 0 0  1.848137076690385 0 0  1.867291007717254 0 0  1.886622833871288 0 0  1.90613418642363 0 0  1.925826753299799 0 0  1.945702199101513 0 0  1.96576223584749 0 0  1.986008569283268 0 0  2.006442931928877 0 0  2.02706707547783 0 0  2.047882750887917 0 0  2.06889175187935 0 0  2.090095860038271 0 0  2.111496891648636 0 0  2.133096679109554 0 0  2.154897066851056 0 0  2.176899916687499 0 0  2.199107102752146 0 0  2.22152053937028 0 0  2.244142122958061 0 0  2.266973806444078 0 0  2.290017523268154 0 0  2.313275249499252 0 0  2.336748971745516 0 0  2.360440702338606 0 0  2.384352453384031 0 0  2.408486280477412 0 0  2.432844240041185 0 0  2.457428414757088 0 0  2.482240901796653 0 0  2.507283830121838 0 0  2.532559332080812 0 0  2.558069568787417 0 0  2.583816724966441 0 0  2.60980299606584 0 0  2.636030600971886 0 0  2.662501790984011 0 0  2.689218818279327 0 0  2.716183964547616 0 0  2.743399548861297 0 0  2.77086788244719 0 0  2.798591312896326 0 0  2.826572223178268 0 0  2.854812990138617 0 0  2.883316031690714 0 0  2.912083780657189 0 0  2.941118704633482 0 0  2.970423276998917 0 0  3 0.02999999999994495 0  3 0.05999999999987042 0  3 0.089999999999783 0  3 0.119999999999701 0  3 0.149999999999619 0  3 0.179999999999692 0  3 0.2099999999997737 0  3 0.2399999999998511 0  3 0.2699999999999185 0  2.970138294777171 0.3 0  2.940375666438236 0.3 0  2.910711782853056 0.3 0  2.881146331305122 0.3 0  2.851678975030285 0.3 0  2.822309388626621 0.3 0  2.793037250095074 0.3 0  2.76386223529133 0.3 0  2.734784017903872 0.3 0  2.705802289276642 0.3 0  2.676916713794697 0.3 0  2.648126987654635 0.3 0  2.619432780406184 0.3 0  2.590833779385199 0.3 0  2.562329669847737 0.3 0  2.533920134950189 0.3 0  2.505604855727852 0.3 0  2.477383539822502 0.3 0  2.449255847639465 0.3 0  2.421221492569094 0.3 0  2.393280152486815 0.3 0  2.36543151914496 0.3 0  2.337675285481809 0.3 0  2.310011142385583 0.3 0  2.282438797441587 0.3 0  2.254957931061538 0.3 0  2.227568248063605 0.3 0  2.200269436651085 0.3 0  2.173061204949961 0.3 0  2.145943251515011 0.3 0  2.118915272469994 0.3 0  2.091976978084957 0.3 0  2.065128060700849 0.3 0  2.038368218849433 0.3 0  2.01169717777258 0.3 0  1.985114624111908 0.3 0  1.958620267850966 0.3 0  1.93221382054972 0.3 0  1.905894991850698 0.3 0  1.879663489459713 0.3 0  1.853519019126419 0.3 0  1.827461291053897 0.3 0  1.801490031354372 0.3 0  1.775604937580312 0.3 0  1.74980572560258 0.3 0  1.724092118631866 0.3 0  1.698463829173586 0.3 0  1.672920575782554 0.3 0  1.647462076974085 0.3 0  1.622088043536933 0.3 0  1.5967981978949 0.3 0  1.571592267767068 0.3 0  1.546469970305736 0.3 0  1.521431023814044 0.3 0  1.496475156230927 0.3 0  1.471602093687753 0.3 0  1.446811560490646 0.3 0  1.422103279101731 0.3 0  1.397476971708191 0.3 0  1.37293238939876 0.3 0  1.348469231419202 0.3 0  1.324087248732772 0.3 0  1.299786165921677 0.3 0  1.275565710847046 0.3 0  1.251425617644257 0.3 0  1.227365618676339 0.3 0  1.203385446174014 0.3 0  1.179484853067473 0.3 0  1.155663548773374 0.3 0  1.131921292279077 0.3 0  1.108257802159295 0.3 0  1.084672829009693 0.3 0  1.061166115303374 0.3 0  1.037737392995421 0.3 0  1.01438640299116 0.3 0  0.991112899770314 0.3 0  0.9679166155523955 0.3 0  0.944797284182564 0.3 0  0.921754678526042 0.3 0  0.8987885143602501 0.3 0  0.8758985548820624 0.3 0  0.8530845484099929 0.3 0  0.8303462351786988 0.3 0  0.8076833651172373 0.3 0  0.7850956864865304 0.3 0  0.7625829601354557 0.3 0  0.7401449314598274 0.3 0  0.717781337993959 0.3 0  0.6954919649675473 0.3 0  0.6732765357561226 0.3 0  0.6511348120768439 0.3 0  0.6290665642016573 0.3 0  0.6070715355430467 0.3 0  0.5851494825775325 0.3 0  0.5633001690203812 0.3 0  0.5415233562273221 0.3 0  0.5198187909431873 0.3 0  0.4981862401387795 0.3 0  0.4766254686134248 0.3 0  0.4551362360485234 0.3 0  0.4337182975262159 0.3 0  0.4123714223228037 0.3 0  0.3910953802377493 0.3 0  0.3698899313205595 0.3 0  0.3487548463710963 0.3 0  0.3276898864081783 0.3 0  0.3066948129116018 0.3 0  0.2857694003037476 0.3 0  0.2649134227095047 0.3 0  0.2441266417321288 0.3 0  0.2234088223399122 0.3 0  0.2027597568977288 0.3 0  0.1821792020676698 0.3 0  0.1616669305402443 0.3 0  0.1412227158799362 0.3 0  0.12084633013886 0.3 0  0.1005375673448281 0.3 0  0.08029618164595353 0.3 0  0.06012194778526769 0.3 0  0.04001466495039718 0.3 0  0.01997408913631205 0.3 0  0 0.2800000000000553 0  0 0.2600000000001105 0  0 0.2400000000001658 0  0 0.2200000000002211 0  0 0.2000000000002764 0  0 0.1800000000002244 0  0 0.1600000000001691 0  0 0.140000000000115 0  0 0.1200000000000564 0  1.13346801534201 0.01255848438672509 0  1.003577645172735 0.09351054173913405 0  0.9777559943702486 0.1034978156913738 0  0.9524533750752109 0.1040889939962738 0  0.9296242411226409 0.1041520033606139 0  0.9046110503652111 0.104409422380137 0  0.8777709649694228 0.1053360318797398 0  0.8483859145648608 0.1061007868330701 0  0.8162363822948977 0.1052777104363292 0  0.7893110024210437 0.1060761643971561 0  0.7587949382612539 0.1067265405088633 0  0.7280603867732535 0.1069398153264939 0  0.6947001989413015 0.1075609887579097 0  0.6590363283767549 0.1076715322596598 0  0.6210028614493155 0.1072970410408442 0  1.1953125 0.01353164693413185 0  1.258193991486058 0.01269648635163345 0  1.3201967268638 0.01407907077719561 0  1.383538555392096 0.01434101079053473 0  1.445312500000001 0.01303671693628424 0  1.508925448095738 0.01398525724792267 0  0.9939176689634008 0.1034638089837981 0  1.120967497222226 0.2796788492172345 0  1.572835902117391 0.01424132418857359 0  1.637573277451887 0.01212536916586023 0  1.709730776795181 0.01466855431023635 0  1.005631976950563 0.07074019818158772 0  1.784944696816299 0.01454708406461822 0  0.5805605730631225 0.1101465090472147 0  1.855621181165637 0.01550931272897607 0  0.5366111276616774 0.1096761308243709 0  1.935200147913231 0.01760344159641829 0  1.214922267975168 0.2799787705802257 0  1.31178773425331 0.2792
[...]
<PointData  Scalars="pressure"> 
<DataArray  type="Float64"  Name="pressure"  format="ascii">1.5481096475249204e-01  -1.6628742121479967e-01  -2.1166924276713550e-01  -1.5925681239373130e-01  -3.7481587877805055e-02  0.0000000000000000e+00  0.0000000000000000e+00  1.5481901463359984e-01  1.4888484299880270e-01  1.4305420220516848e-01  1.3731747220454524e-01  1.3167312741400697e-01  1.2611965187509558e-01  1.2065556508607082e-01  1.1527943333150575e-01  1.0998978057874530e-01  1.0478521167422025e-01  9.9664336233448933e-02  9.4625743565907888e-02  8.9668082138203917e-02  8.4790037009853478e-02  7.9990237267188138e-02  7.5267381690437632e-02  7.0620258798739954e-02  6.6047455151012582e-02  6.1547779075334215e-02  5.7119983010919043e-02  5.2762752805313395e-02  4.8474923262179954e-02  4.4255364742270119e-02  4.0102702322873045e-02  3.6015857554674041e-02  3.1993520515905649e-02  2.8034589770928278e-02  2.4138020121474493e-02  2.0302516497848970e-02  1.6526881257220665e-02  1.2810061183306782e-02  9.1509096741314300e-03  5.5482091509297332e-03  2.0009625792293123e-03  -1.4920971618788382e-03  -4.9320030801293336e-03  -8.3199607692876956e-03  -1.1657063174418397e-02  -1.4943974611680552e-02  -1.8182617354251862e-02  -2.1373583838840200e-02  -2.4518023693646765e-02  -2.7617267466320441e-02  -3.0672360710961185e-02  -3.3683716684367905e-02  -3.6653531729809827e-02  -3.9582265026947783e-02  -4.2471086002390218e-02  -4.5321180411703139e-02  -4.8133573477640378e-02  -5.0909359233848615e-02  -5.3649783049239702e-02  -5.6355812727006287e-02  -5.9028456583104238e-02  -6.1668710245383430e-02  -6.4278268458851512e-02  -6.6857492472732039e-02  -6.9407738923943640e-02  -7.1929675181788791e-02  -7.4425516581885245e-02  -7.6895667195224726e-02  -7.9340347029852196e-02  -8.1761455012082471e-02  -8.4160704743211398e-02  -8.6537702478327844e-02  -8.8894732360059320e-02  -9.1232548762903307e-02  -9.3551434477920303e-02  -9.5853138517830228e-02  -9.8138631139246507e-02  -1.0040892741934616e-01  -1.0266596007911932e-01  -1.0490982463464982e-01  -1.0714099723229781e-01  -1.0936025090549475e-01  -1.1157147094438406e-01  -1.1377362609902886e-01  -1.1596750806379585e-01  -1.1815526715679461e-01  -1.2033739011563868e-01  -1.2251500281677218e-01  -1.2468944520436746e-01  -1.2686294772189688e-01  -1.2903611780480143e-01  -1.3120936306598605e-01  -1.3338557176963053e-01  -1.3556596855296882e-01  -1.3775208930640256e-01  -1.3994585182477498e-01  -1.4214903681354193e-01  -1.4436401872052246e-01  -1.4659338731434418e-01  -1.4884015131574768e-01  -1.5110799837861552e-01  -1.5339917270607614e-01  -1.5572155092068146e-01  -1.5807748418033768e-01  -1.6049857489800504e-01  -1.6283662150120204e-01  -1.6783286236109299e-01  -1.6992509511144435e-01  -1.7402334816722759e-01  -1.6922646066286182e-01  -2.0044732740316817e-01  -1.7959913659082608e-01  -1.7309072296435743e-01  -1.6832764654567842e-01  -1.6509929269795295e-01  -1.6267122237685167e-01  -1.6084879067769078e-01  -1.5950980810717108e-01  -1.5870258776121585e-01  -1.5850038342626083e-01  -1.5890388799111066e-01  -1.5969860009459710e-01  -1.6007088917925111e-01  -1.5985945014208755e-01  -1.5917940517061280e-01  -1.5812084683954880e-01  -1.5672690778151041e-01  -1.5498180890863955e-01  -1.5287219397558505e-01  -1.5042713078342065e-01  -1.4766402511452301e-01  -1.4458678381930565e-01  -1.4120934815445466e-01  -1.3754312879026528e-01  -1.3360050543217217e-01  -1.2940256127555944e-01  -1.2496293388223800e-01  -1.2029481323945236e-01  -1.1541749736185208e-01  -1.1035099652400142e-01  -1.0510744325127051e-01  -9.9717455642385891e-02  -9.4201542379041048e-02  -8.8576502988806149e-02  -8.2874912838207651e-02  -7.7115972213922676e-02  -7.1331745165736163e-02  -6.5544710627638419e-02  -5.9778963426280952e-02  -5.4066933121884278e-02  -4.8430138616824457e-02  -4.2894903485858997e-02  -3.2115627198786426e-02  -2.6881425838442281e-02  -2.1788403101593867e-02  -1.6869658645329126e-02  -1.2150546019753935e-02  -7.6334075030760383e-03  -3.3415691649740262e-03  7.2066954919574949e-04  4.5055244751106482e-03  8.0390600627272841e-03  1.1323628208048298e-02  1.4339378095331852e-02  1.7089923550965148e-02  1.9583999799655510e-02  2.1826868944692338e-02  2.3824560928222584e-02  2.5593450669850391e-02  2.7135036203632491e-02  2.8463628177665807e-02  2.9610253259085697e-02  3.0563886467425003e-02  3.1354412715758728e-02  3.1995393683528529e-02  3.2494637444625198e-02  3.2873357017502818e-02  3.3135699646746015e-02  3.3311880577897746e-02  3.3392765526635088e-02  3.3398527330698959e-02  3.3333793329027410e-02  3.3205992839570979e-02  3.3023981683519665e-02  3.2796436579785412e-02  3.2527024158015949e-02  3.2216249012613760e-02  3.1870669037918964e-02  3.1490664978237291e-02  3.1078504274554501e-02  3.0634915655644180e-02  3.0159988472505918e-02  2.9653777304264564e-02  2.9115911948697389e-02  2.8544951074599149e-02  2.7940903939178145e-02  2.7301166080164464e-02  2.6624285536653157e-02  2.5911106893538739e-02  2.5156839031807935e-02  2.4359596530027710e-02  2.3523364594638718e-02  2.2638995461493873e-02  2.1713116992496909e-02  2.0735775173410447e-02  1.9715269735671889e-02  1.8644209586749380e-02  1.7518899251280490e-02  1.6349469895883109e-02  1.5122366207952140e-02  1.3848394642248860e-02  1.2521803768776823e-02  1.1141547431282754e-02  9.7078941342276133e-03  8.2228256244364969e-03  6.6893577280445760e-03  5.0980680906683954e-03  3.4668742310309786e-03  1.7797855923840824e-03  0.0000000000000000e+00  0.0000000000000000e+00  0.0000000000000000e+00  0.0000000000000000e+00  0.0000000000000000e+00  0.0000000000000000e+00  0.0000000000000000e+00  0.0000000000000000e+00  0.0000000000000000e+00  1.9272169711296409e-03  3.7281769433142545e-03  5.5030563886097105e-03  7.2254319523408963e-03  8.8991513000467436e-03  1.0523061521195981e-02  1.2096350261710321e-02  1.3617351397792677e-02  1.5083230156492971e-02  1.6491898540971377e-02  1.7839412912079248e-02  1.9123420198027485e-02  2.0338931774287420e-02  2.1483057573319277e-02  2.2551031859082280e-02  2.3536489891242417e-02  2.4439053322031650e-02  2.5247752715861389e-02  2.5958007534426734e-02  2.6563758157148502e-02  2.7058254283308998e-02  2.7434812056228400e-02  2.7687904949752214e-02  2.7806900839778926e-02  2.7789682151046952e-02  2.7624987877244975e-02  2.7310325380884615e-02  2.6834245952823875e-02  2.6191576803922784e-02  2.5379505637591518e-02  2.4387320497566870e-02  2.3209462738225953e-02  2.1860619080920671e-02  2.0326036883504491e-02  1.8580475339208348e-02  1.6663893682889324e-02  1.4552247739917272e-02  1.2247058294354270e-02  9.7490195205540316e-03  7.0660297700734665e-03  4.1881631732549190e-03  1.1288776545610745e-03  -2.1204189252358799e-03  -5.5499309698560503e-03  -9.1708828255715139e-03  -1.2968942870870928e-02  -1.6944752749908070e-02  -2.1090550481868017e-02  -2.5408387640066823e-02  -2.9884689582532528e-02  -3.4516759096241627e-02  -3.9292925158429991e-02  -4.4200464567107606e-02  -4.9230650502643900e-02  -5.4367865617395698e-02  -5.9590285885829063e-02  -6.4843650065510697e-02  -7.0168119002024021e-02  -7.5485586187778203e-02  -8.0740908743934178e-02  -8.5936387756432309e-02  -9.1004671478054147e-02  -9.5928281275634575e-02  -1.0060503873907532e-01  -1.0503053514666225e-01  -1.0909902528893713e-01  -1.1279924774709051e-01  -1.1602485422835329e-01  -1.1877937259933212e-01  -1.2093258580800732e-01  -1.2249752873144218e-01  -1.2339913191443554e-01  -1.2350203374345019e-01  -1.2297035834556197e-01  -1.2165402678816675e-01  -1.1954945550583433e-01  -1.1676382774183926e-01  -1.1331038208282579e-01  -1.0931433223182628e-01  -1.0484428632051217e-01  -9.9895718721608739e-02  -9.4614501162700426e-02  -8.9042174404244445e-02  -8.3280620234380598e-02  -7.7334293433927559e-02  -7.1234128212925754e-02  -6.5038277571149342e-02  -5.8761329016773618e-02  -5.2415632618979441e-02  -4.6027546161619200e-02  -3.9602791633695726e-02  -3.3161855200576289e-02  -2.6708026427896492e-02  -2.0244204811636461e-02  -1.3783187126151886e-02  -7.3263739580285980e-03  -8.7513955453569778e-04  5.5666197499605009e-03  1.1995433678871393e-02  1.8409994499908454e-02  2.4809713355704227e-02  3.1192870306638937e-02  3.7559245729671682e-02  4.3907033685346368e-02  5.0236621342276182e-02  5.6547190853818749e-02  6.2838430831770403e-02  6.9110226506929925e-02  7.5362226135848476e-02  8.1594365374242125e-02  8.7806597324841862e-02  9.3998807291301611e-02  1.0017095754018719e-01  1.0632304059700415e-01  1.1245506134636984e-01  1.1856698817503870e-01  1.2465889291727286e-01  1.3073079028501772e-01  1.3678270480880203e-01  1.4281469014091847e-01  1.4882677688297491e-01  1.5481898353276274e-01  1.5481864894020955e-01  1.5481783180587125e-01  1.5481654911680262e-01  1.5481499107669244e-01  1.5481343142893536e-01  1.5481214605893051e-01  1.5481132347951565e-01  1.5481099008862337e-01  -1.5128469140430448e-01  -1.8383707602558089e-01  -1.6439860319772062e-01  -1.5002975761103293e-01  -1.3896740047693404e-01  -1.2803772393190765e-01  -1.1725037899337218e-01  -1.0620793591744780e-01  -9.4777295416471966e-02  -8.5599696949476264e-02  -7.5506380337788975e-02  -6.5587526648389280e-02  -5.5027061191903807e-02  -4.3905815340113535e-02  -3.2181666366424937e-02  -1.3923668729159863e-01  -1.2250830209187590e-01  -1.0256187850338042e-01  -7.9943567958491127e-02  -5.7202916579631370e-02  -3.4838019535009902e-02  -1.7772753636870514e-01  -1.2110474322893289e-01  -1.4903472649190992e-02  1.6929120080590322e-03  1.5307246789483647e-02  -1.6455835055170379e-01  2.4633458413556835e-02  -1.9823233302914845e-02  2.9720532649873909e-02  -6.4741116470540738e-03  3.2469369948723896e-02  -1.1038686892130428e-01  -9.2841496357869716e-02  3.3274170828468945e-02  -7.2403798647892217e-02  7.3495681510345858e-03  -4.6327452897852735e-02  3.2828631482225742e-02  2.2218637874275880e-02  -1.5693697115000765e-01  3.1613199545432936e-02  -2.3030684590485073e-02  -1.2277659892262831e-01  3.7626893954601733e-02  2.9858718385113028e-02  -4.4724233755559842e-04  5.5128262960982471e-02  8.2682176272633624e-03  2.7556934537289704e-02  1.5697788090191733e-02  7.2421354224668860e-02  -1.1783924453755105e-01  2.4773245588508991e-02  2.1076046088856024e-02  -1.0695397399881114e-01  2.4882955778020657e-02  2.1205051960964900e-02  -9.1815708228374024e-02  9.2622792382995617e-02  1.0664037587755479e-01  -1.0970238099093369e-02  1.8050916046444113e-02  1.4310474114751346e-02  2.6997806823875637e-02  -7.4483921999185590e-02  2.7639907745997620e-02  -1.5688097294370054e-01  -4.9659394617006573e-02  2.6712050564512008e-02  1.2409248985665020e-01  -2.9972275813713679e-02  1.0396091339812303e-02  2.3922671487179158e-02  -1.0433756482899671e-02  1.5369928594918774e-02  2.0844605884039746e-02  4.7072536297512506e-02  1.7108912328473797e-02  6.6030645406493130e-02  8.4806493962191601e-02  1.2814639220635035e-02  1.1640534659482174e-01  1.6185321703501745e-03  1.4923510894439682e-01  -1.5970111646060309e-01  8.1608426948694014e-03  5.7703876771384678e-03  1.3420774269535327e-01  -1.7106488663801628e-01  -1.5902535126688383e-01  -1.1678642752540587e-01  -6.1805418166424750e-02  1.8526143794933177e-03  2.7669416483111657e-02  1.3454683251937621e-01  -3.7032243103588540e-02  -6.1512605786935279e-02  -8.2719032617345853e-02  -1.0215969332147232e-01  8.2684608843155968e-02  2.7607703998053505e-02  6.3509732101674460e-02  9.7047457847395602e-02  2.5517164302485851e-02  2.3075032731103579e-02  4.5804963898928686e-02  2.6159653122886505e-02  2.8789467269068714e-02  3.0263212808488864e-02  3.0800437655208245e-02  3.2299854082662581e-02  3.3181448549357749e-02  3.3088511634356881e-02  -2.4707493563300910e-02  1.4666494583663790e-02  3.1389656764862280e-02  2.7500880452102867e-02  2.7084189083108589e-04  2.0571046104268482e-02  9.3048015985838662e-03  -5.7344210329238286e-03  1.3495323461859088e-03  -1.3665608021029398e-02  -2.5620459717563701e-02  1.4957460366748776e-01  -3.7808816783393297e-02  -4.9534608057622997e-02  -6.0366367237450841e-02  -7.0785550550591561e-02  -8.0630373917452938e-02  -8.9992938945915771e-02  -1.4573974830312814e-01  -1.0158775208223425e-01  -1.1273327163251469e-01  -1.2368564255656339e-01  -1.3144311029235481e-01  -1.3465239342695207e-01  -9.1737095233208332e-02  -1.1242647444082322e-01  -6.9529808209575397e-02  -4.5984773335236470e-02  -1.4561534406878315e-01  -1.6962378203266754e-01  1.6962875297947028e-03  1.4907856884703866e-01  4.5459898195502222e-03  -1.5946704957090285e-01  1.4982636029189783e-01  1.3762162796343959e-03  1.4572300274464339e-01  -1.5943049674167165e-01  -1.5908962935232954e-01  -1.5862254346063534e-01  -1.5913023600156737e-01  -1.5864580133871917e-01  -1.5948172340212977e-01  -1.5881511187954009e-01  -1.5993472735573708e-01  -1.5909717939586449e-01  -1.6025210708978913e-01  -1.5929559504247756e-01  -1.6017161443648328e-01  -1.5901847311561396e-01  -1.5953309657623407e-01  -1.5824010613640302e-01  -1.5844962222427281e-01  -1.5697677826515413e-01  -1.5699004825598475e-01  -1.5534316532514947e-01  -1.5500631275030946e-01  -1.5303496934597960e-01  -1.5673305511391311e-01  -1.5347863778190560e-01  -1.5077697255503575e-01  -1.5412728429129521e-01  -1.5616736748228788e-01  -1.5100450241461211e-01  -1.4814687571986143e-01  -1.4830020011926801e-01  -1.4507209508459146e-01  -1.4511001339903373e-01  -1.4156053428506937e-01  -1.4151226993846408e-01  -1.3788279064861936e-01  -1.3750271112209972e-01  -1.3314789406786989e-01  -1.3286648424523059e-01  -1.2868319754472798e-01  -1.2798295790404976e-01  -1.2364184773521464e-01  -1.2269793559601835e-01  -1.1827605505662804e-01  -1.1710055384052079e-01  -1.1264867603072494e-01  -1.1120116566901232e-01  -1.0679085633804646e-01  -1.0503583115158477e-01  -1.0072351796300040e-01  -9.8673027059401161e-02  -9.4525094373893448e-02  -9.2135174089229041e-02  -8.8238171409202648e-02  -8.5372919629049832e-02  -1.5253924371048466e-01  -1.5448651264805724e-01  -8.1887850754591526e-02  -7.8596334991103786e-02  -7.5540540098896464e-02  -7.2253999120023865e-02  -6.9312931841215605e-02  -6.5668905143924289e-02  -6.3197600463079540e-02  -5.9226666624482033e-02  -1.4713606641821050e-01  -5.7306439590305458e-02  -5.2917833800235986e-02  -5.1383521646862308e-02  -4.6765759000086886e-02  -4.5819665067468027e-02  -4.0903633831442021e-02  -1.5007007025488323e-01  -1.5228162885290342e-01  -1.6067439112049731e-01  -4.0444575955773235e-02  -3.5255442795209077e-02  -3.5353238529544258e-02  -2.9904027277252051e-02  -3.0527225290771912e-02  -2.4875562419871371e-02  -1.5766618340747379e-01  -2.5981023701258744e-02  -2.0137448474630462e-02  -1.3728986846269420e-01  -2.1698886695831063e-02  -1.5731994860753124e-02  -1.7708167928714300e-02  -1.1648391821093416e-02  -1.3923598770671496e-02  -7.8757803278735293e-03  -1.5760027125712997e-01  -1.2364595644858976e-01  -1.0471499346981350e-02  -4.4113703666495835e-03  -1.4673505506877721e-01  -1.4828587036781790e-01  -1.4489223332455625e-01  -1.0758586992822668e-01  -7.2057475425078175e-03  -1.0958736863639683e-03  -4.2775175326275694e-03  1.8730254549328058e-03  -1.4944420484881520e-03  4.4369306026412680e-03  -3.5845978525918108e-02  1.8147215997397802e-03  -1.9290487457122359e-02  -5.4980188070484812e-02  1.0834796351894705e-03  6.7860604562290051e-03  1.0149566517685027e-02  1.2331181790284329e-02  8.9844571951075373e-03  1.4297075741447269e-02  1.1059031795319255e-02  1.6131391910216369e-02  1.2929512681963408e-02  1.7723519870116510e-02  1.4641688354094526e-02  1.9192578117162719e-02  1.6254051376041821e-02  2.0480499012056386e-02  1.7649891311095709e-02  2.1658169853997978e-02  1.9046740597067614e-02  2.2830182821151099e-02  2.0291825915580194e-02  2.3789108747679661e-02  2.1465458530995671e-02  2.4619118399080760e-02  2.2400577631213971e-02  2.5374805568813504e-02  -7.5057278617847598e-02  -9.0443909672995815e-02  2.3357683747208806e-02  2.6008609978369089e-02  2.4263210298837930e-02  2.6612185071392364e-02  -1.4432851918450387e-01  -1.0897838494954366e-01  2.5066414117323556e-02  2.7105328894346102e-02  -1.2638925369440879e-01  -7.3068994945948901e-02  -1.4249083990830053e-01  -1.4367378223096453e-01  -1.5032514032984559e-01  -1.4459219340274665e-01  -1.5032281719608054e-01  -1.4483932111017661e-01  -1.5107007595605290e-01  -1.4457804706591817e-01  -1.4912715679063923e-01  -1.4325274660233531e-01  -1.4796602344288429e-01  -1.4144862371352129e-01  -1.4462112167535882e-01  -1.3887386689856662e-01  -1.4129840348691400e-01  -1.3600592778804135e-01  -1.3771879057245767e-01  -1.3277084146531026e-01  -1.3398793528296835e-01  -1.2937715394580751e-01  -1.3015517679782840e-01  -1.2583447507849593e-01  -1.2630101260596274e-01  -1.2223379652884823e-01  -1.2243461921901642e-01  -1.1863599754969341e-01  -1.1824185614195783e-01  -1.1472810265330405e-01  -1.1475138921060576e-01  -1.1114637643661295e-01  -1.1102375403441377e-01  -1.0753542526176393e-01  -1.0741944487968728e-01  -1.0396522909408101e-01  -1.0356383726091081e-01  -1.0032418958403461e-01  -1.3334625055195148e-01  -1.1068011516298874e-01  -1.2462031171168751e-01  -9.9842702083156515e-02  -9.6603496696549621e-02  -9.6832885897267545e-02  -9.3298976173008447e-02  -9.2841750046229216e-02  -8.9684517070653197e-02  -8.9033956481397544e-02  -8.6009049336839796e-02  -8.5240941888568206e-02  -8.2270919597545858e-02  -8.9403266043021956e-02  -1.5568775562671960e-01  -1.5024124690051641e-01  -8.1509031945518895e-02  -7.8477986088685184e-02  -7.9191742005916707e-02  -7.5410965497164098e-02  -7.4661590729940067e-02  -7.1651134628567731e-02  -7.0787557520540723e-02  -6.7863109070968403e-02  -1.4272083180053066e-01  -7.2136488142375360e-02  -6.6936743281145961e-02  -6.4089314564331701e-02  -1.3441282058262546e-01  -6.3200392797207156e-02  -6.0257842320119492e-02  -6.1416343038059970e-02  -5.7267833731699809e-02  -5.6317737947964665e-02  -5.3220367835606977e-02  -5.4125507160459135e-02  -5.0084301074866264e-02  -4.9190117073865704e-02  -4.6050461837116259e-02  -4.5143716984889282e-02  -4.1922292377624078e-02  -4.2852853081904056e-02  -3.8730759222761708e-02  -3.7767138843889096e-02  -3.4602836466974429e-02  -3.3674849292537244e-02  -3.0491452392086144e-02  -1.3950893406890225e-01  -1.1081880499774159e-01  -1.2608923938642430e-01  -2.9654980855349695e-02  -2.6411523773116754e-02  -2.7259388727602835e-02  -2.3027719427951350e-02  -2.2182876683680044e-02  -1.8801421134242033e-02  -2.3874192708428152e-02  2.5701247653025547e-02  2.7513877150302856e-02  2.6276089464561288e-02  2.7855099736278109e-02  2.6785363852816501e-02  2.8125606778751550e-02  -9.2215318063603363e-02  -4.5606228328800409e-02  -1.6050921550917796e-01  -1.7922665645264239e-02  -1.4609615349426407e-02  -1.0295023723279231e-01  2.3502872797226359e-02  2.7398472347349542e-02  1.5175181441572361e-02  2.7203613442757946e-02  2.8316372939659509e-02  2.9324967930616407e-02  2.9300780338554700e-02  2.8433341556483267e-02  2.9224395181832376e-02  2.8483095866244403e-02  2.9089451725345088e-02  2.8451341123048608e-02  2.8888984637533879e-02  2.8347672173078882e-02  2.8630311777188430e-02  2.8161098340887609e-02  2.8300577747684852e-02  2.7899253284683397e-02  2.7911643540305852e-02  2.7564858845218174e-02  2.7461650015176569e-02  2.7161650114056798e-02  2.6952606800364091e-02  2.6678673216719781e-02  2.6369812586629831e-02  2.6114832012103024e-02  2.5735668297880480e-02  2.5475188736138393e-02  2.5015546484933489e-02  2.4775687416747873e-02  2.4255171036116432e-02  2.3982471475437021e-02  2.3409888557134981e-02  2.3135198147336278e-02  2.2517239509803635e-02  2.9039889502896606e-02  -3.9728554199921627e-02  -7.3832254735142711e-02  -1.3606992051973394e-02  -1.0307870780038902e-02  -1.1300754043038966e-02  -6.8486830580447586e-03  -7.8856968432218389e-03  -3.3311566244959537e-03  -2.4128948169784403e-03  1.1236082377332874e-03  2.1628763292782494e-03  5.6710892085272517e-03  4.7291636152959433e-03  9.2642579535680697e-03  1.0065115251830129e-02  1.3764619474707957e-02  1.4552481159305720e-