<?xml version="1.0"?>
<VTKFile type="UnstructuredGrid"  version="0.1"  >
<UnstructuredGrid>
<Piece  NumberOfPoints="2886" NumberOfCells="5412">
<Points>
<DataArray  type="Float64"  NumberOfComponents="3"  format="ascii">0 0.1 0  0.98 0.1 0  1 0.1 0  1 0 0  1.5 0 0  3 0 0  3 0.3 0  0 0.3 0  0.01975375321854102 0.1 0  0.03918897458218897 0.1 0  0.05831079002627837 0.1 0  0.07712425666319796 0.1 0  0.0956343475259058 0.1 0  0.1138459546796227 0.1 0  0.1317638870668193 0.1 0  0.1493928840275937 0.1 0  0.1667376092280033 0.1 0  0.1838026357802664 0.1 0  0.2005924801287244 0.1 0  0.2171115811543574 0.1 0  0.2333643037107681 0.1 0  0.2493549444060462 0.1 0  0.2650877293306821 0.1 0  0.2805668058011438 0.1 0  0.2957962848620976 0.1 0  0.3107801766802674 0.1 0  0.3255224447361181 0.1 0  0.3400269848175519 0.1 0  0.3542976327080778 0.1 0  0.3683381609158136 0.1 0  0.3821522744564845 0.1 0  0.3957436316838916 0.1 0  0.4091158196437086 0.1 0  0.4222723742184605 0.1 0  0.4352167733293057 0.1 0  0.4479524348643424 0.1 0  0.4604827295467524 0.1 0  0.4728109659990664 0.1 0  0.4849404035409129 0.1 0  0.4968742471455402 0.1 0  0.508615651843175 0.1 0  0.520167721130924 0.1 0  0.5315335063628542 0.1 0  0.5427160117228604 0.1 0  0.5537181940261912 0.1 0  0.564542961924507 0.1 0  0.575193173270606 0.1 0  0.5856716438765114 0.1 0  0.5959811458006617 0.1 0  0.6061243988680743 0.1 0  0.6161040893285659 0.1 0  0.6259228503970299 0.1 0  0.6355832809287655 0.1 0  0.6450879281079505 0.1 0  0.6544393102991295 0.1 0  0.663639896558931 0.1 0  0.6726921201956305 0.1 0  0.6815983691630338 0.1 0  0.6903610031396646 0.1 0  0.6989823343332418 0.1 0  0.7074646404270378 0.1 0  0.7158101645005117 0.1 0  0.7240211149852543 0.1 0  0.7320996585612525 0.1 0  0.7400479319727645 0.1 0  0.7478680336617921 0.1 0  0.755562036504958 0.1 0  0.7631319665092091 0.1 0  0.7705798279317605 0.1 0  0.777907588066146 0.1 0  0.7851171851013118 0.1 0  0.7922105226004981 0.1 0  0.7991894774550319 0.1 0  0.8060558928136696 0.1 0  0.812811583201334 0.1 0  0.8194583352091183 0.1 0  0.8259979035038147 0.1 0  0.8324320194413813 0.1 0  0.8387623808293405 0.1 0  0.8449906627004957 0.1 0  0.8511185094880469 0.1 0  0.8571475426008311 0.1 0  0.8630793533568246 0.1 0  0.8689155114558531 0.1 0  0.8746575581239063 0.1 0  0.8803070109173519 0.1 0  0.885865363938836 0.1 0  0.8913340851680313 0.1 0  0.8967146206523592 0.1 0  0.9020083930695622 0.1 0  0.9072167995950768 0.1 0  0.9123412183131177 0.1 0  0.9173830029719022 0.1 0  0.9223434865647732 0.1 0  0.9272239785872722 0.1 0  0.9320257720706087 0.1 0  0.9367501330378739 0.1 0  0.9413983102716995 0.1 0  0.9459715351562933 0.1 0  0.9504710127113115 0.1 0  0.9548979346500661 0.1 0  0.9592534708344373 0.1 0  0.9635387708980176 0.1 0  0.9677549682252325 0.1 0  0.971903177251235 0.1 0  0.9759844952956497 0.1 0  0.9840000000000086 0.1 0  0.987999999999974 0.1 0  0.9919999999999393 0.1 0  0.9959999999999913 0.1 0  1 0.09591793123533533 0  1 0.09133596463859224 0  1 0.08619288104391448 0  1 0.08041996484521211 0  1 0.07394008421771697 0  1 0.06666666567302955 0  1 0.05850252932209174 0  1 0.04933859630113544 0  1 0.03905242821848202 0  1 0.02750659386753798 0  1 0.01454683679239736 0  1.015625 0 0  1.03125 0 0  1.046875 0 0  1.0625 0 0  1.078125 0 0  1.09375 0 0  1.109375 0 0  1.125 0 0  1.140625 0 0  1.15625 0 0  1.171875 0 0  1.1875 0 0  1.203125 0 0  1.21875 0 0  1.234375 0 0  1.25 0 0  1.265625 0 0  1.28125 0 0  1.296875 0 0  1.3125 0 0  1.328125 0 0  1.34375 0 0  1.359375 0 0  1.375 0 0  1.390625 0 0  1.40625 0 0  1.421875 0 0  1.4375 0 0  1.453125 0 0  1.46875 0 0  1.484375 0 0  1.515920751924515 0 0  1.531989369316721 0 0  1.54820720925872 0 0  1.564575665560501 0 0  1.581096138674279 0 0  1.597770029901263 0 0  1.614598783332311 0 0  1.631583831055205 0 0  1.64872661129721 0 0  1.666028606716533 0 0  1.683491276608443 0 0  1.701116134125304 0 0  1.718904673324128 0 0  1.736858414799339 0 0  1.754978895814663 0 0  1.773267661782904 0 0  1.791726281103402 0 0  1.810356325314689 0 0  1.8291593848892 0 0  1.848137076690385 0 0  1.867291007717254 0 0  1.886622833871288 0 0  1.90613418642363 0 0  1.925826753299799 0 0  1.945702199101513 0 0  1.96576223584749 0 0  1.986008569283268 0 0  2.006442931928877 0 0  2.02706707547783 0 0  2.047882750887917 0 0  2.06889175187935 0 0  2.090095860038271 0 0  2.111496891648636 0 0  2.133096679109554 0 0  2.154897066851056 0 0  2.176899916687499 0 0  2.199107102752146 0 0  2.22152053937028 0 0  2.244142122958061 0 0  2.266973806444078 0 0  2.290017523268154 0 0  2.313275249499252 0 0  2.336748971745516 0 0  2.360440702338606 0 0  2.384352453384031 0 0  2.408486280477412 0 0  2.432844240041185 0 0  2.457428414757088 0 0  2.482240901796653 0 0  2.507283830121838 0 0  2.532559332080812 0 0  2.558069568787417 0 0  2.583816724966441 0 0  2.60980299606584 0 0  2.636030600971886 0 0  2.662501790984011 0 0  2.689218818279327 0 0  2.716183964547616 0 0  2.743399548861297 0 0  2.77086788244719 0 0  2.798591312896326 0 0  2.826572223178268 0 0  2.854812990138617 0 0  2.883316031690714 0 0  2.912083780657189 0 0  2.941118704633482 0 0  2.970423276998917 0 0  3 0.02999999999994495 0  3 0.05999999999987042 0  3 0.089999999999783 0  3 0.119999999999701 0  3 0.149999999999619 0  3 0.179999999999692 0  3 0.2099999999997737 0  3 0.2399999999998511 0  3 0.2699999999999185 0  2.970138294777171 0.3 0  2.940375666438236 0.3 0  2.910711782853056 0.3 0  2.881146331305122 0.3 0  2.851678975030285 0.3 0  2.822309388626621 0.3 0  2.793037250095074 0.3 0  2.76386223529133 0.3 0  2.734784017903872 0.3 0  2.705802289276642 0.3 0  2.676916713794697 0.3 0  2.648126987654635 0.3 0  2.619432780406184 0.3 0  2.590833779385199 0.3 0  2.562329669847737 0.3 0  2.533920134950189 0.3 0  2.505604855727852 0.3 0  2.477383539822502 0.3 0  2.449255847639465 0.3 0  2.421221492569094 0.3 0  2.393280152486815 0.3 0  2.36543151914496 0.3 0  2.337675285481809 0.3 0  2.310011142385583 0.3 0  2.282438797441587 0.3 0  2.254957931061538 0.3 0  2.227568248063605 0.3 0  2.200269436651085 0.3 0  2.173061204949961 0.3 0  2.145943251515011 0.3 0  2.118915272469994 0.3 0  2.091976978084957 0.3 0  2.065128060700849 0.3 0  2.038368218849433 0.3 0  2.01169717777258 0.3 0  1.985114624111908 0.3 0  1.958620267850966 0.3 0  1.93221382054972 0.3 0  1.905894991850698 0.3 0  1.879663489459713 0.3 0  1.853519019126419 0.3 0  1.827461291053897 0.3 0  1.801490031354372 0.3 0  1.775604937580312 0.3 0  1.74980572560258 0.3 0  1.724092118631866 0.3 0  1.698463829173586 0.3 0  1.672920575782554 0.3 0  1.647462076974085 0.3 0  1.622088043536933 0.3 0  1.5967981978949 0.3 0  1.571592267767068 0.3 0  1.546469970305736 0.3 0  1.521431023814044 0.3 0  1.496475156230927 0.3 0  1.471602093687753 0.3 0  1.446811560490646 0.3 0  1.422103279101731 0.3 0  1.397476971708191 0.3 0  1.37293238939876 0.3 0  1.348469231419202 0.3 0  1.324087248732772 0.3 0  1.299786165921677 0.3 0  1.275565710847046 0.3 0  1.251425617644257 0.3 0  1.227365618676339 0.3 0  1.203385446174014 0.3 0  1.179484853067473 0.3 0  1.155663548773374 0.3 0  1.131921292279077 0.3 0  1.108257802159295 0.3 0  1.084672829009693 0.3 0  1.061166115303374 0.3 0  1.037737392995421 0.3 0  1.01438640299116 0.3 0  0.991112899770314 0.3 0  0.9679166155523955 0.3 0  0.944797284182564 0.3 0  0.921754678526042 0.3 0  0.8987885143602501 0.3 0  0.8758985548820624 0.3 0  0.8530845484099929 0.3 0  0.8303462351786988 0.3 0  0.8076833651172373 0.3 0  0.7850956864865304 0.3 0  0.7625829601354557 0.3 0  0.7401449314598274 0.3 0  0.717781337993959 0.3 0  0.6954919649675473 0.3 0  0.6732765357561226 0.3 0  0.6511348120768439 0.3 0  0.6290665642016573 0.3 0  0.6070715355430467 0.3 0  0.5851494825775325 0.3 0  0.5633001690203812 0.3 0  0.5415233562273221 0.3 0  0.5198187909431873 0.3 0  0.4981862401387795 0.3 0  0.4766254686134248 0.3 0  0.4551362360485234 0.3 0  0.4337182975262159 0.3 0  0.4123714223228037 0.3 0  0.3910953802377493 0.3 0  0.3698899313205595 0.3 0  0.3487548463710963 0.3 0  0.3276898864081783 0.3 0  0.3066948129116018 0.3 0  0.2857694003037476 0.3 0  0.2649134227095047 0.3 0  0.2441266417321288 0.3 0  0.2234088223399122 0.3 0  0.2027597568977288 0.3 0  0.1821792020676698 0.3 0  0.1616669305402443 0.3 0  0.1412227158799362 0.3 0  0.12084633013886 0.3 0  0.1005375673448281 0.3 0  0.08029618164595353 0.3 0  0.06012194778526769 0.3 0  0.04001466495039718 0.3 0  0.01997408913631205 0.3 0  0 0.2800000000000553 0  0 0.2600000000001105 0  0 0.2400000000001658 0  0 0.2200000000002211 0  0 0.2000000000002764 0  0 0.1800000000002244 0  0 0.1600000000001691 0  0 0.140000000000115 0  0 0.1200000000000564 0  1.13346801534201 0.01255848438672509 0  1.003577645172735 0.09351054173913405 0  0.9777559943702486 0.1034978156913738 0  0.9524533750752109 0.1040889939962738 0  0.9296242411226409 0.1041520033606139 0  0.9046110503652111 0.104409422380137 0  0.8777709649694228 0.1053360318797398 0  0.8483859145648608 0.1061007868330701 0  0.8162363822948977 0.1052777104363292 0  0.7893110024210437 0.1060761643971561 0  0.7587949382612539 0.1067265405088633 0  0.7280603867732535 0.1069398153264939 0  0.6947001989413015 0.1075609887579097 0  0.6590363283767549 0.1076715322596598 0  0.6210028614493155 0.1072970410408442 0  1.1953125 0.01353164693413185 0  1.258193991486058 0.01269648635163345 0  1.3201967268638 0.01407907077719561 0  1.383538555392096 0.01434101079053473 0  1.445312500000001 0.01303671693628424 0  1.508925448095738 0.01398525724792267 0  0.9939176689634008 0.1034638089837981 0  1.120967497222226 0.2796788492172345 0  1.572835902117391 0.01424132418857359 0  1.637573277451887 0.01212536916586023 0  1.709730776795181 0.01466855431023635 0  1.005631976950563 0.07074019818158772 0  1.784944696816299 0.01454708406461822 0  0.5805605730631225 0.1101465090472147 0  1.855621181165637 0.01550931272897607 0  0.5366111276616774 0.1096761308243709 0  1.935200147913231 0.01760344159641829 0  1.214922267975168 0.2799787705802257 0  1.31178773425331 0.2792
[...]
<PointData  Scalars="pressure"> 
<DataArray  type="Float64"  Name="pressure"  format="ascii">1.5850816908994686e-01  -1.6545014169820385e-01  -2.1602840518174893e-01  -1.6151944539904248e-01  -4.0844315355950879e-02  0.0000000000000000e+00  0.0000000000000000e+00  1.5851531500512087e-01  1.5258204685599930e-01  1.4675141437183034e-01  1.4101470509191383e-01  1.3537039435570269e-01  1.2981696889971409e-01  1.2435294962256481e-01  1.1897690181955814e-01  1.1368735548176395e-01  1.0848291500425862e-01  1.0336219207243502e-01  9.8323782119311240e-02  9.3366335852468493e-02  8.8488538926674840e-02  8.3689029481391661e-02  7.8966509950820454e-02  7.4319765297016407e-02  6.9747401955976451e-02  6.5248226987587671e-02  6.0820999274140745e-02  5.6464420727767466e-02  5.2177327596410417e-02  4.7958590244211320e-02  4.3806862580855553e-02  3.9721064142160901e-02  3.5699910774950050e-02  3.1742305131810748e-02  2.7847202786188626e-02  2.4013337884566738e-02  2.0239533450365298e-02  1.6524742875675145e-02  1.2867838097752653e-02  9.2676297424733496e-03  5.7231260378850521e-03  2.2330970795921348e-03  -1.2034771527283925e-03  -4.5877691135050979e-03  -7.9208496388453817e-03  -1.1203404320109423e-02  -1.4437239372671684e-02  -1.7622976079768420e-02  -2.0761726105377531e-02  -2.3854766177938160e-02  -2.6903115264108303e-02  -2.9907224574791117e-02  -3.2869138089844298e-02  -3.5789346913936690e-02  -3.8668974216727589e-02  -4.1509156178248990e-02  -4.4310885709129971e-02  -4.7075213857303469e-02  -4.9803325575348334e-02  -5.2496158225912339e-02  -5.5154682577094341e-02  -5.7779856354589827e-02  -6.0373258969609905e-02  -6.2935281177300406e-02  -6.5467197754290232e-02  -6.7969670760742326e-02  -7.0444728054430750e-02  -7.2892801477755023e-02  -7.5314143494014038e-02  -7.7710500868303500e-02  -8.0083454875202201e-02  -8.2432713591593404e-02  -8.4760352959757118e-02  -8.7067102762561785e-02  -8.9353259400164309e-02  -9.1620418000137482e-02  -9.3869485756871165e-02  -9.6101399290571016e-02  -9.8317909399985845e-02  -1.0051912337567674e-01  -1.0270551764206080e-01  -1.0487777084345144e-01  -1.0703933662748844e-01  -1.0918932653764732e-01  -1.1132843627126802e-01  -1.1345855755924476e-01  -1.1558010064447002e-01  -1.1769403364243501e-01  -1.1980147963752702e-01  -1.2190433215847937e-01  -1.2400306968719020e-01  -1.2609793844459716e-01  -1.2819131460699906e-01  -1.3028410351974898e-01  -1.3237744249540565e-01  -1.3447271154559548e-01  -1.3657113584089650e-01  -1.3867435629051322e-01  -1.4078407085956016e-01  -1.4290217393351573e-01  -1.4503066300857440e-01  -1.4717103055544897e-01  -1.4932477955482507e-01  -1.5148059327640070e-01  -1.5385521145593342e-01  -1.5509772574442179e-01  -1.5871123567429415e-01  -1.5621923744057184e-01  -1.6118673001789280e-01  -1.5855791288743443e-01  -2.0338402866511712e-01  -1.8193687818264359e-01  -1.7535440191340598e-01  -1.7056409306098841e-01  -1.6733007679148137e-01  -1.6490309141579601e-01  -1.6308542881278770e-01  -1.6175413933412841e-01  -1.6095527667046383e-01  -1.6076043216988661e-01  -1.6116732575727549e-01  -1.6196027829457232e-01  -1.6233563848369892e-01  -1.6213056360899952e-01  -1.6146025331305938e-01  -1.6041532414575913e-01  -1.5903948557274475e-01  -1.5731771723133478e-01  -1.5523720642225819e-01  -1.5282698110188972e-01  -1.5010436244392089e-01  -1.4707328998966882e-01  -1.4374744895652145e-01  -1.4013788382788711e-01  -1.3625660674286749e-01  -1.3212396426490797e-01  -1.2775283914311467e-01  -1.2315560459884996e-01  -1.1835056432077165e-01  -1.1335657145322051e-01  -1.0818421417860630e-01  -1.0286344633984232e-01  -9.7412514566385860e-02  -9.1847311115488078e-02  -8.6198648272519718e-02  -8.0484921678057958e-02  -7.4735680230843607e-02  -6.8973248272441195e-02  -6.3220291280187316e-02  -5.7508520279057972e-02  -5.1858832811393619e-02  -4.6297248099723021e-02  -3.5424435760873729e-02  -3.0122776340996124e-02  -2.4948852068390297e-02  -1.9936886738242215e-02  -1.5113813448749975e-02  -1.0481792028594688e-02  -6.0677187886858030e-03  -1.8768795736316037e-03  2.0419521296804605e-03  5.7129291382343877e-03  9.1356649834681350e-03  1.2289069820589549e-02  1.5175471520253211e-02  1.7801959303050594e-02  2.0172589699434581e-02  2.2292557782135607e-02  2.4177394062207220e-02  2.5827775154254443e-02  2.7258195216901364e-02  2.8499327540207703e-02  2.9539856978482690e-02  3.0410078801117534e-02  3.1123702884931173e-02  3.1688872520579704e-02  3.2127106527392799e-02  3.2442915804415523e-02  3.2667387111099982e-02  3.2791197187917238e-02  3.2835296917491950e-02  3.2804586325754302e-02  3.2706855446238935e-02  3.2551489913653864e-02  3.2347670177358095e-02  3.2099430968365567e-02  3.1807470006523696e-02  3.1478864245190231e-02  3.1114228433956857e-02  3.0716178631642502e-02  3.0285696591680119e-02  2.9823096150892653e-02  2.9328650111874670e-02  2.8802179048550012e-02  2.8242353533564479e-02  2.7649380135113703e-02  2.7020681458419613e-02  2.6354871512943620e-02  2.5652986004831225e-02  2.4910162869113635e-02  2.4124409367449771e-02  2.3300053126895877e-02  2.2427551131506962e-02  2.1513942222987945e-02  2.0548762116038372e-02  1.9540818179746226e-02  1.8482356233655003e-02  1.7369591600332399e-02  1.6213007773041896e-02  1.4998460672954702e-02  1.3737286994783070e-02  1.2423423458078028e-02  1.1055865064369589e-02  9.6346216131967116e-03  8.1618443347946084e-03  6.6406931888567129e-03  5.0617686995717281e-03  3.4427653627931731e-03  1.7674180473342686e-03  0.0000000000000000e+00  0.0000000000000000e+00  0.0000000000000000e+00  0.0000000000000000e+00  0.0000000000000000e+00  0.0000000000000000e+00  0.0000000000000000e+00  0.0000000000000000e+00  0.0000000000000000e+00  1.9195690171506942e-03  3.7113643174436647e-03  5.4755090541069914e-03  7.1865856254400198e-03  8.8483615731040181e-03  1.0459562444250139e-02  1.2019259745824485e-02  1.3525729422774631e-02  1.4976104847368504e-02  1.6368172723204209e-02  1.7697920136306850e-02  1.8962860312080616e-02  2.0157919038133312e-02  2.1280091471471856e-02  2.2324531568760179e-02  2.3284660942240611e-02  2.4160074076158184e-02  2.4939644913322088e-02  2.5618707251531262e-02  2.6191107427563528e-02  2.6649987485333728e-02  2.6988692049213954e-02  2.7201566324704676e-02  2.7277877151731442e-02  2.7215923783190626e-02  2.7004082063232380e-02  2.6640126780136161e-02  2.6112724700883553e-02  2.5416781950490082e-02  2.4549650608335319e-02  2.3500654745596521e-02  2.2264342874455480e-02  2.0855613532024874e-02  1.9260162014972954e-02  1.7452099520470079e-02  1.5471680928891762e-02  1.3295517571572019e-02  1.0924643296837379e-02  8.3604513687172959e-03  5.6106414545253839e-03  2.6663440490325568e-03  -4.5864935723969284e-04  -3.7726604232962715e-03  -7.2650837123097159e-03  -1.0947013487484808e-02  -1.4802783329212133e-02  -1.8833442915378605e-02  -2.3030070573327406e-02  -2.7395690154360924e-02  -3.1916366945746677e-02  -3.6589262673481032e-02  -4.1402803853952529e-02  -4.6343595288479381e-02  -5.1402843656496527e-02  -5.6564748704908338e-02  -6.1805742651609881e-02  -6.7067028055665126e-02  -7.2394175189877522e-02  -7.7702804991886670e-02  -8.2933515099747793e-02  -8.8089998826709717e-02  -9.3101008820824740e-02  -9.7947161326847582e-02  -1.0252281918556912e-01  -1.0682156146466486e-01  -1.1073411221193795e-01  -1.1424858005786941e-01  -1.1725463760982606e-01  -1.1975657010516648e-01  -1.2162238995846616e-01  -1.2286744758044130e-01  -1.2342021509506194e-01  -1.2315284169543822e-01  -1.2223661467640697e-01  -1.2053755007187300e-01  -1.1806406054634427e-01  -1.1493407530864498e-01  -1.1117173033606763e-01  -1.0690301655593065e-01  -1.0219746101480012e-01  -9.7055541061838418e-02  -9.1613452043368987e-02  -8.5910581689209092e-02  -8.0039455318148142e-02  -7.4004682668946151e-02  -6.7834336481145216e-02  -6.1580740563886419e-02  -5.5256994933960218e-02  -4.8874232272659718e-02  -4.2456022377604700e-02  -3.6007486747743775e-02  -2.9546915540685031e-02  -2.3077235472073833e-02  -1.6601034430636291e-02  -1.0129715294593184e-02  -3.6645165329635032e-03  2.7933410872525298e-03  9.2403940684030374e-03  1.5673557185422005e-02  2.2091675881222121e-02  2.8494232027212203e-02  3.4879702327104557e-02  4.1247898022098488e-02  4.7597220607199037e-02  5.3928021321074514e-02  6.0239580795548885e-02  6.6531629496570766e-02  7.2804072948526644e-02  7.9056605605489730e-02  8.5289178277757269e-02  9.1501756929073391e-02  9.7694246461869652e-02  1.0386662143157506e-01  1.1001888271806849e-01  1.1615104220610699e-01  1.2226307939138963e-01  1.2835506499121896e-01  1.3442702025291026e-01  1.4047897451315824e-01  1.4651098214289140e-01  1.5252307849603669e-01  1.5851528739024481e-01  1.5851499034783584e-01  1.5851426496166196e-01  1.5851312632438574e-01  1.5851174327548354e-01  1.5851035879961911e-01  1.5850921778263277e-01  1.5850848756267011e-01  1.5850819158664017e-01  -1.5366884596037661e-01  -1.8642907218708074e-01  -1.5757447105394554e-01  -1.4399688156884141e-01  -1.3352560722947079e-01  -1.2303018559021540e-01  -1.1257009116702714e-01  -1.0178517472150345e-01  -9.0556756641039834e-02  -8.1502244041594313e-02  -7.1513254563330811e-02  -6.1671719782288185e-02  -5.1172253591180439e-02  -4.0097557988750067e-02  -2.8408037458622557e-02  -1.4180042724800487e-01  -1.2532938452237663e-01  -1.0566296555467161e-01  -8.3280235579462236e-02  -6.0634471114024931e-02  -3.8162764057944068e-02  -1.7011341315695924e-01  -1.2166513549183350e-01  -1.7914745740913864e-02  -8.5734371233611836e-04  1.3319545119596066e-02  -1.6680779565664819e-01  2.3169467589724345e-02  -1.6074494805818282e-02  2.8637178814290423e-02  -2.7435028694131960e-03  3.1685184419203191e-02  -1.1192793296634931e-01  -9.4890653907680728e-02  3.2693591611633328e-02  -7.4613333965459341e-02  1.1068002133699425e-02  -4.8470362048605553e-02  3.2362857905168047e-02  2.5928822609359654e-02  -1.5924269716813078e-01  3.1226311364459875e-02  -2.4981981446975443e-02  -1.2223191256306024e-01  4.1331796242210395e-02  2.9526080141946558e-02  -2.0595101774468056e-03  5.8829637302031758e-02  6.8488486650110951e-03  2.7270821064504316e-02  1.4482116095041938e-02  7.6120750898695286e-02  -1.1620498151666765e-01  2.4531446620782823e-02  2.0045303019538753e-02  -1.0444030823550829e-01  2.4030842349341504e-02  2.1011998629074088e-02  -8.8757226120737998e-02  9.6320939112058232e-02  1.1033804623542735e-01  -1.2766295095707059e-02  1.7895666374082346e-02  1.4194879501947966e-02  2.6304344131300370e-02  -7.1125445381530039e-02  2.7134643044169151e-02  -1.5038161100823905e-01  -4.6106965765636332e-02  2.6320741517530850e-02  1.2778983838364824e-01  -2.6350437479337817e-02  1.0317025130387649e-02  2.3655264911694465e-02  -6.7763990190973580e-03  1.9049736265880132e-02  2.0651023769160094e-02  5.0763249390481394e-02  1.6974754271730608e-02  6.9724140452346262e-02  8.8501462538265296e-02  1.2728756693756773e-02  1.2010139037787737e-01  1.6082490746825214e-03  1.5293178016777456e-01  -1.6195343152833158e-01  8.1136818655128604e-03  5.7292721485053405e-03  1.3790399172960660e-01  -1.7336336686131293e-01  -1.6130187599437687e-01  -1.1790062273541685e-01  -5.8326309017140025e-02  5.5230570637137587e-03  3.1354795513115638e-02  1.3824408634537574e-01  -3.9113216326697633e-02  -6.3717886079053807e-02  -8.4883268089954028e-02  -1.0401134443682514e-01  8.6383263533701932e-02  2.7010286282480096e-02  6.7210010111293697e-02  1.0074299210512416e-01  2.5192003748000829e-02  2.2857342534678558e-02  4.9507970510587723e-02  2.5896778212341480e-02  2.8480202690699636e-02  3.3970325081882628e-02  3.0442509688132741e-02  3.1877882328169772e-02  3.2658850775864633e-02  3.2420322904014455e-02  -2.7902541483373136e-02  1.8380382968594774e-02  3.0468942720168007e-02  2.6238917366652459e-02  3.9948745168512803e-03  1.8859829519321653e-02  7.0457619792209962e-03  -8.5154009312075948e-03  1.3411801803178895e-03  -9.9262145122160049e-03  -2.1861258251065638e-02  1.5327161243690635e-01  -3.4019957457512705e-02  -4.5704725930992930e-02  -5.6483067706782492e-02  -6.6831753560110979e-02  -7.6587827943308359e-02  -8.5840113073373706e-02  -1.4820492171648506e-01  -9.7254132825575282e-02  -1.0816770220085743e-01  -1.1882051037694194e-01  -1.3412733410794048e-01  -1.2939699153768497e-01  -9.4965423906927790e-02  -1.1539526916767377e-01  -7.2931022048027996e-02  -4.9391189036944255e-02  -1.3984250162440312e-01  -1.5899679730403887e-01  1.6868291132565811e-03  1.5277495385596077e-01  4.5223875687916467e-03  -1.6173136271621033e-01  1.5352354872848409e-01  1.3672559895165776e-03  1.4941929846490978e-01  -1.6169939645384573e-01  -1.6136085883708645e-01  -1.6090124235330877e-01  -1.6140195093558965e-01  -1.6092470419975186e-01  -1.6175373756539868e-01  -1.6109530440101003e-01  -1.6220892278277832e-01  -1.6137987079838409e-01  -1.6253134627768792e-01  -1.6158355033058433e-01  -1.6245823690684164e-01  -1.6131521565156684e-01  -1.6182593844170973e-01  -1.6054562070019451e-01  -1.6073837521384043e-01  -1.5928275556751073e-01  -1.5925404035034049e-01  -1.5762906965674450e-01  -1.5720163226611214e-01  -1.5527498108300333e-01  -1.5887917354594672e-01  -1.5580398105760465e-01  -1.5306246861017697e-01  -1.5614102928213885e-01  -1.5808739626279997e-01  -1.5336110919981125e-01  -1.5047875849992245e-01  -1.5070021071470624e-01  -1.4745346088228914e-01  -1.4755820181782167e-01  -1.4399126997833553e-01  -1.4401427977578829e-01  -1.4037590354881213e-01  -1.4006550162435036e-01  -1.3569728902416234e-01  -1.3549466524231740e-01  -1.3130590680548976e-01  -1.3068097232572767e-01  -1.2633230729145381e-01  -1.2546913040161989e-01  -1.2103322814905836e-01  -1.1994526546447468e-01  -1.1547022707041245e-01  -1.1411780114865637e-01  -1.0967347246419011e-01  -1.0802087458192940e-01  -1.0365827141707420e-01  -1.0171925754057205e-01  -9.7504628245843439e-02  -9.5226943372342471e-02  -9.1250427742886553e-02  -8.8517292697220556e-02  -1.5426109527434259e-01  -1.5601762751675075e-01  -8.4912625876047851e-02  -8.1755691723597035e-02  -7.8573845991918842e-02  -7.5421900869440409e-02  -7.2327484822208229e-02  -6.8826344853841773e-02  -6.6180508898318474e-02  -6.2354397588426168e-02  -1.4935561874893771e-01  -6.0246229819925098e-02  -5.5998041971323756e-02  -5.4227848185672174e-02  -4.9774700186015999e-02  -4.8620061267975717e-02  -4.3833191365671591e-02  -1.5139036086522692e-01  -1.5327479326554602e-01  -1.6295811807526647e-01  -4.3156053647193264e-02  -3.8088292964209368e-02  -3.7969102565599697e-02  -3.2627013529717232e-02  -3.3039823276085553e-02  -2.7480882256452850e-02  -1.5935993507031729e-01  -2.8386420826058547e-02  -2.2617642164028652e-02  -1.3965814539078594e-01  -2.3994541289839286e-02  -1.8084335398631017e-02  -1.9895666067772131e-02  -1.3873173462991713e-02  -1.6007362483761813e-02  -9.9746273586565990e-03  -1.5991174359115717e-01  -1.2621883510872384e-01  -1.2453412544662385e-02  -6.3895418727519032e-03  -1.4756764503082950e-01  -1.4872079339604452e-01  -1.4603486293501436e-01  -1.1034263142124226e-01  -9.0908467809949697e-03  -2.9571321810404486e-03  -6.0712413561730787e-03  1.2165490432345047e-04  -3.2028108331484469e-03  2.7852831957799807e-03  -3.8879053557670996e-02  -1.4939637347404077e-04  -2.1967261228258497e-02  -5.8221021618861668e-02  -5.4623497023429475e-04  5.2259355612289289e-03  8.5538333596554481e-03  1.0838092442930479e-02  7.5087054519823926e-03  1.2897489716526147e-02  9.6613111269448007e-03  1.4819022094121984e-02  1.1603509163185879e-02  1.6490700130251040e-02  1.3381856486139900e-02  1.8031200572518145e-02  1.5055739850353989e-02  1.9384078758686543e-02  1.6506428595552004e-02  2.0620230530247325e-02  1.7957080894558893e-02  2.1849660792514571e-02  1.9252054181537796e-02  2.2858136792309566e-02  2.0472578433222061e-02  2.3734193210960437e-02  2.1448350910919192e-02  2.4532049801923531e-02  -7.8316097806661988e-02  -9.3301714190277857e-02  2.2447182071321587e-02  2.5205168535335956e-02  2.3394528801906535e-02  2.5846009845635995e-02  -1.4681328609661792e-01  -1.1196594536969585e-01  2.4238191014557368e-02  2.6374906182528215e-02  -1.2913919648251948e-01  -7.5947231821402617e-02  -1.4283473623009313e-01  -1.4355307752713500e-01  -1.5018803259986707e-01  -1.4388893684238044e-01  -1.4940760409325163e-01  -1.4349142003047607e-01  -1.4927789754454088e-01  -1.4254053912957534e-01  -1.4654699036896085e-01  -1.4058663062302257e-01  -1.4467798906970250e-01  -1.3824565379503834e-01  -1.4080492406620715e-01  -1.3526235812934173e-01  -1.3713478208351010e-01  -1.3210190621038834e-01  -1.3335394923867180e-01  -1.2868164763120066e-01  -1.2952060639602678e-01  -1.2518221371268992e-01  -1.2565327706877627e-01  -1.2158748952364815e-01  -1.2180288356939509e-01  -1.1796783007659147e-01  -1.1796371285543300e-01  -1.1437210953929661e-01  -1.1381847308549230e-01  -1.1049610223975553e-01  -1.1069714813149746e-01  -1.0708556904865052e-01  -1.0681078356973399e-01  -1.0347549067925031e-01  -1.0321761979709844e-01  -9.9909349148209051e-02  -9.9394800425446794e-02  -9.6282776847171819e-02  -1.3003655103044845e-01  -1.0682430576708518e-01  -1.2068329569341137e-01  -9.5704715041802599e-02  -9.2577968350253587e-02  -9.2921560695774161e-02  -8.9387407042220729e-02  -8.8832739901729671e-02  -8.5771873227212900e-02  -8.5042882190608002e-02  -8.2101742080342599e-02  -8.1268621852830222e-02  -7.8375234881419578e-02  -8.5591890672953128e-02  -1.5448815909592084e-01  -1.4615604321487075e-01  -7.7555490661921037e-02  -7.4591831651424675e-02  -7.5371375625150880e-02  -7.1592626559136452e-02  -7.0784596448808523e-02  -6.7832616004594587e-02  -6.6921034463663945e-02  -6.4047829443961424e-02  -1.3799531937871376e-01  -6.8379013139663117e-02  -6.3080938108235465e-02  -6.0277397098841522e-02  -1.2963444058095866e-01  -5.9355017713249789e-02  -5.6451638305731015e-02  -5.7647931919800117e-02  -5.3500496051075541e-02  -5.2516861599296437e-02  -4.9452983467576879e-02  -5.0396245287747256e-02  -4.6349736369075419e-02  -4.5423348950481356e-02  -4.2312252642454175e-02  -4.1378487874898139e-02  -3.8181785785914878e-02  -3.9141261073667749e-02  -3.5013379361752861e-02  -3.4025560332137945e-02  -3.0881422153160133e-02  -2.9933537170717481e-02  -2.6767649161540771e-02  -1.3843145632658771e-01  -1.0647265587419129e-01  -1.2142330019637525e-01  -2.5914620689543640e-02  -2.2686286561634145e-02  -2.3551905030111744e-02  -1.9316719423420621e-02  -1.8457174551218574e-02  -1.5087751247830366e-02  -2.0181232249458322e-02  2.4908373643764335e-02  2.6816040479960310e-02  2.5519050938399828e-02  2.7189655975672470e-02  2.6064358033693447e-02  2.7491446198328714e-02  -8.8135683294760098e-02  -4.8175602154884284e-02  -1.6277763235848061e-01  -1.4197057300380452e-02  -1.0894446561300985e-02  -9.8702465863283004e-02  2.2435216086524160e-02  2.6609867741861037e-02  1.3632968091260208e-02  2.6518318075113415e-02  2.7712421985947453e-02  2.8772992205139247e-02  2.8773557917082838e-02  2.7858745135219500e-02  2.8721646998583029e-02  2.7937770848152719e-02  2.8610736643867461e-02  2.7934267992175355e-02  2.8432770273189547e-02  2.7858468072296125e-02  2.8196696242362308e-02  2.7698823124066491e-02  2.7888971852921763e-02  2.7462933634938642e-02  2.7521743082514722e-02  2.7154277978405774e-02  2.7093008183696917e-02  2.6776196511405705e-02  2.6605120743283719e-02  2.6318171520568829e-02  2.6042859333897873e-02  2.5778393156761750e-02  2.5429210641716354e-02  2.5161592782945698e-02  2.4728662661536196e-02  2.4484721756249331e-02  2.3987922739632312e-02  2.3713743594567186e-02  2.3161511584435399e-02  2.2887075784294091e-02  2.2287534304751125e-02  2.8405286744242281e-02  -3.6040177433672917e-02  -6.9908830679101711e-02  -9.8820277118859285e-03  -6.5919524556455134e-03  -7.5954086615076747e-03  -3.1413005573728463e-03  -4.1891588696029505e-03  3.6857245806195545e-04  1.2959197553175505e-03  4.8256696388100468e-03  5.8724935322786781e-03  9.3748408554261940e-03  8.4254311850004739e-03  1.2962839001642114e-02  1.3769931747359606e-02  1.7464911741062020e-02  1.8257817734819898e