<?xml version="1.0"?>
<VTKFile type="UnstructuredGrid"  version="0.1"  >
<UnstructuredGrid>
<Piece  NumberOfPoints="2886" NumberOfCells="5412">
<Points>
<DataArray  type="Float64"  NumberOfComponents="3"  format="ascii">0 0.1 0  0.98 0.1 0  1 0.1 0  1 0 0  1.5 0 0  3 0 0  3 0.3 0  0 0.3 0  0.01975375321854102 0.1 0  0.03918897458218897 0.1 0  0.05831079002627837 0.1 0  0.07712425666319796 0.1 0  0.0956343475259058 0.1 0  0.1138459546796227 0.1 0  0.1317638870668193 0.1 0  0.1493928840275937 0.1 0  0.1667376092280033 0.1 0  0.1838026357802664 0.1 0  0.2005924801287244 0.1 0  0.2171115811543574 0.1 0  0.2333643037107681 0.1 0  0.2493549444060462 0.1 0  0.2650877293306821 0.1 0  0.2805668058011438 0.1 0  0.2957962848620976 0.1 0  0.3107801766802674 0.1 0  0.3255224447361181 0.1 0  0.3400269848175519 0.1 0  0.3542976327080778 0.1 0  0.3683381609158136 0.1 0  0.3821522744564845 0.1 0  0.3957436316838916 0.1 0  0.4091158196437086 0.1 0  0.4222723742184605 0.1 0  0.4352167733293057 0.1 0  0.4479524348643424 0.1 0  0.4604827295467524 0.1 0  0.4728109659990664 0.1 0  0.4849404035409129 0.1 0  0.4968742471455402 0.1 0  0.508615651843175 0.1 0  0.520167721130924 0.1 0  0.5315335063628542 0.1 0  0.5427160117228604 0.1 0  0.5537181940261912 0.1 0  0.564542961924507 0.1 0  0.575193173270606 0.1 0  0.5856716438765114 0.1 0  0.5959811458006617 0.1 0  0.6061243988680743 0.1 0  0.6161040893285659 0.1 0  0.6259228503970299 0.1 0  0.6355832809287655 0.1 0  0.6450879281079505 0.1 0  0.6544393102991295 0.1 0  0.663639896558931 0.1 0  0.6726921201956305 0.1 0  0.6815983691630338 0.1 0  0.6903610031396646 0.1 0  0.6989823343332418 0.1 0  0.7074646404270378 0.1 0  0.7158101645005117 0.1 0  0.7240211149852543 0.1 0  0.7320996585612525 0.1 0  0.7400479319727645 0.1 0  0.7478680336617921 0.1 0  0.755562036504958 0.1 0  0.7631319665092091 0.1 0  0.7705798279317605 0.1 0  0.777907588066146 0.1 0  0.7851171851013118 0.1 0  0.7922105226004981 0.1 0  0.7991894774550319 0.1 0  0.8060558928136696 0.1 0  0.812811583201334 0.1 0  0.8194583352091183 0.1 0  0.8259979035038147 0.1 0  0.8324320194413813 0.1 0  0.8387623808293405 0.1 0  0.8449906627004957 0.1 0  0.8511185094880469 0.1 0  0.8571475426008311 0.1 0  0.8630793533568246 0.1 0  0.8689155114558531 0.1 0  0.8746575581239063 0.1 0  0.8803070109173519 0.1 0  0.885865363938836 0.1 0  0.8913340851680313 0.1 0  0.8967146206523592 0.1 0  0.9020083930695622 0.1 0  0.9072167995950768 0.1 0  0.9123412183131177 0.1 0  0.9173830029719022 0.1 0  0.9223434865647732 0.1 0  0.9272239785872722 0.1 0  0.9320257720706087 0.1 0  0.9367501330378739 0.1 0  0.9413983102716995 0.1 0  0.9459715351562933 0.1 0  0.9504710127113115 0.1 0  0.9548979346500661 0.1 0  0.9592534708344373 0.1 0  0.9635387708980176 0.1 0  0.9677549682252325 0.1 0  0.971903177251235 0.1 0  0.9759844952956497 0.1 0  0.9840000000000086 0.1 0  0.987999999999974 0.1 0  0.9919999999999393 0.1 0  0.9959999999999913 0.1 0  1 0.09591793123533533 0  1 0.09133596463859224 0  1 0.08619288104391448 0  1 0.08041996484521211 0  1 0.07394008421771697 0  1 0.06666666567302955 0  1 0.05850252932209174 0  1 0.04933859630113544 0  1 0.03905242821848202 0  1 0.02750659386753798 0  1 0.01454683679239736 0  1.015625 0 0  1.03125 0 0  1.046875 0 0  1.0625 0 0  1.078125 0 0  1.09375 0 0  1.109375 0 0  1.125 0 0  1.140625 0 0  1.15625 0 0  1.171875 0 0  1.1875 0 0  1.203125 0 0  1.21875 0 0  1.234375 0 0  1.25 0 0  1.265625 0 0  1.28125 0 0  1.296875 0 0  1.3125 0 0  1.328125 0 0  1.34375 0 0  1.359375 0 0  1.375 0 0  1.390625 0 0  1.40625 0 0  1.421875 0 0  1.4375 0 0  1.453125 0 0  1.46875 0 0  1.484375 0 0  1.515920751924515 0 0  1.531989369316721 0 0  1.54820720925872 0 0  1.564575665560501 0 0  1.581096138674279 0 0  1.597770029901263 0 0  1.614598783332311 0 0  1.631583831055205 0 0  1.64872661129721 0 0  1.666028606716533 0 0  1.683491276608443 0 0  1.701116134125304 0 0  1.718904673324128 0 0  1.736858414799339 0 0  1.754978895814663 0 0  1.773267661782904 0 0  1.791726281103402 0 0  1.810356325314689 0 0  1.8291593848892 0 0  1.848137076690385 0 0  1.867291007717254 0 0  1.886622833871288 0 0  1.90613418642363 0 0  1.925826753299799 0 0  1.945702199101513 0 0  1.96576223584749 0 0  1.986008569283268 0 0  2.006442931928877 0 0  2.02706707547783 0 0  2.047882750887917 0 0  2.06889175187935 0 0  2.090095860038271 0 0  2.111496891648636 0 0  2.133096679109554 0 0  2.154897066851056 0 0  2.176899916687499 0 0  2.199107102752146 0 0  2.22152053937028 0 0  2.244142122958061 0 0  2.266973806444078 0 0  2.290017523268154 0 0  2.313275249499252 0 0  2.336748971745516 0 0  2.360440702338606 0 0  2.384352453384031 0 0  2.408486280477412 0 0  2.432844240041185 0 0  2.457428414757088 0 0  2.482240901796653 0 0  2.507283830121838 0 0  2.532559332080812 0 0  2.558069568787417 0 0  2.583816724966441 0 0  2.60980299606584 0 0  2.636030600971886 0 0  2.662501790984011 0 0  2.689218818279327 0 0  2.716183964547616 0 0  2.743399548861297 0 0  2.77086788244719 0 0  2.798591312896326 0 0  2.826572223178268 0 0  2.854812990138617 0 0  2.883316031690714 0 0  2.912083780657189 0 0  2.941118704633482 0 0  2.970423276998917 0 0  3 0.02999999999994495 0  3 0.05999999999987042 0  3 0.089999999999783 0  3 0.119999999999701 0  3 0.149999999999619 0  3 0.179999999999692 0  3 0.2099999999997737 0  3 0.2399999999998511 0  3 0.2699999999999185 0  2.970138294777171 0.3 0  2.940375666438236 0.3 0  2.910711782853056 0.3 0  2.881146331305122 0.3 0  2.851678975030285 0.3 0  2.822309388626621 0.3 0  2.793037250095074 0.3 0  2.76386223529133 0.3 0  2.734784017903872 0.3 0  2.705802289276642 0.3 0  2.676916713794697 0.3 0  2.648126987654635 0.3 0  2.619432780406184 0.3 0  2.590833779385199 0.3 0  2.562329669847737 0.3 0  2.533920134950189 0.3 0  2.505604855727852 0.3 0  2.477383539822502 0.3 0  2.449255847639465 0.3 0  2.421221492569094 0.3 0  2.393280152486815 0.3 0  2.36543151914496 0.3 0  2.337675285481809 0.3 0  2.310011142385583 0.3 0  2.282438797441587 0.3 0  2.254957931061538 0.3 0  2.227568248063605 0.3 0  2.200269436651085 0.3 0  2.173061204949961 0.3 0  2.145943251515011 0.3 0  2.118915272469994 0.3 0  2.091976978084957 0.3 0  2.065128060700849 0.3 0  2.038368218849433 0.3 0  2.01169717777258 0.3 0  1.985114624111908 0.3 0  1.958620267850966 0.3 0  1.93221382054972 0.3 0  1.905894991850698 0.3 0  1.879663489459713 0.3 0  1.853519019126419 0.3 0  1.827461291053897 0.3 0  1.801490031354372 0.3 0  1.775604937580312 0.3 0  1.74980572560258 0.3 0  1.724092118631866 0.3 0  1.698463829173586 0.3 0  1.672920575782554 0.3 0  1.647462076974085 0.3 0  1.622088043536933 0.3 0  1.5967981978949 0.3 0  1.571592267767068 0.3 0  1.546469970305736 0.3 0  1.521431023814044 0.3 0  1.496475156230927 0.3 0  1.471602093687753 0.3 0  1.446811560490646 0.3 0  1.422103279101731 0.3 0  1.397476971708191 0.3 0  1.37293238939876 0.3 0  1.348469231419202 0.3 0  1.324087248732772 0.3 0  1.299786165921677 0.3 0  1.275565710847046 0.3 0  1.251425617644257 0.3 0  1.227365618676339 0.3 0  1.203385446174014 0.3 0  1.179484853067473 0.3 0  1.155663548773374 0.3 0  1.131921292279077 0.3 0  1.108257802159295 0.3 0  1.084672829009693 0.3 0  1.061166115303374 0.3 0  1.037737392995421 0.3 0  1.01438640299116 0.3 0  0.991112899770314 0.3 0  0.9679166155523955 0.3 0  0.944797284182564 0.3 0  0.921754678526042 0.3 0  0.8987885143602501 0.3 0  0.8758985548820624 0.3 0  0.8530845484099929 0.3 0  0.8303462351786988 0.3 0  0.8076833651172373 0.3 0  0.7850956864865304 0.3 0  0.7625829601354557 0.3 0  0.7401449314598274 0.3 0  0.717781337993959 0.3 0  0.6954919649675473 0.3 0  0.6732765357561226 0.3 0  0.6511348120768439 0.3 0  0.6290665642016573 0.3 0  0.6070715355430467 0.3 0  0.5851494825775325 0.3 0  0.5633001690203812 0.3 0  0.5415233562273221 0.3 0  0.5198187909431873 0.3 0  0.4981862401387795 0.3 0  0.4766254686134248 0.3 0  0.4551362360485234 0.3 0  0.4337182975262159 0.3 0  0.4123714223228037 0.3 0  0.3910953802377493 0.3 0  0.3698899313205595 0.3 0  0.3487548463710963 0.3 0  0.3276898864081783 0.3 0  0.3066948129116018 0.3 0  0.2857694003037476 0.3 0  0.2649134227095047 0.3 0  0.2441266417321288 0.3 0  0.2234088223399122 0.3 0  0.2027597568977288 0.3 0  0.1821792020676698 0.3 0  0.1616669305402443 0.3 0  0.1412227158799362 0.3 0  0.12084633013886 0.3 0  0.1005375673448281 0.3 0  0.08029618164595353 0.3 0  0.06012194778526769 0.3 0  0.04001466495039718 0.3 0  0.01997408913631205 0.3 0  0 0.2800000000000553 0  0 0.2600000000001105 0  0 0.2400000000001658 0  0 0.2200000000002211 0  0 0.2000000000002764 0  0 0.1800000000002244 0  0 0.1600000000001691 0  0 0.140000000000115 0  0 0.1200000000000564 0  1.13346801534201 0.01255848438672509 0  1.003577645172735 0.09351054173913405 0  0.9777559943702486 0.1034978156913738 0  0.9524533750752109 0.1040889939962738 0  0.9296242411226409 0.1041520033606139 0  0.9046110503652111 0.104409422380137 0  0.8777709649694228 0.1053360318797398 0  0.8483859145648608 0.1061007868330701 0  0.8162363822948977 0.1052777104363292 0  0.7893110024210437 0.1060761643971561 0  0.7587949382612539 0.1067265405088633 0  0.7280603867732535 0.1069398153264939 0  0.6947001989413015 0.1075609887579097 0  0.6590363283767549 0.1076715322596598 0  0.6210028614493155 0.1072970410408442 0  1.1953125 0.01353164693413185 0  1.258193991486058 0.01269648635163345 0  1.3201967268638 0.01407907077719561 0  1.383538555392096 0.01434101079053473 0  1.445312500000001 0.01303671693628424 0  1.508925448095738 0.01398525724792267 0  0.9939176689634008 0.1034638089837981 0  1.120967497222226 0.2796788492172345 0  1.572835902117391 0.01424132418857359 0  1.637573277451887 0.01212536916586023 0  1.709730776795181 0.01466855431023635 0  1.005631976950563 0.07074019818158772 0  1.784944696816299 0.01454708406461822 0  0.5805605730631225 0.1101465090472147 0  1.855621181165637 0.01550931272897607 0  0.5366111276616774 0.1096761308243709 0  1.935200147913231 0.01760344159641829 0  1.214922267975168 0.2799787705802257 0  1.31178773425331 0.2792
[...]
<PointData  Scalars="pressure"> 
<DataArray  type="Float64"  Name="pressure"  format="ascii">1.5679814383945972e-01  -1.6581193749687401e-01  -2.1399275541676527e-01  -1.6048252457111561e-01  -3.9086928675642292e-02  0.0000000000000000e+00  0.0000000000000000e+00  1.5680573702662579e-01  1.5087202184891879e-01  1.4504138528911178e-01  1.3930466583657650e-01  1.3366033839759692e-01  1.2810688838191628e-01  1.2264283603605697e-01  1.1726674712993002e-01  1.1197714873358039e-01  1.0677264547129271e-01  1.0165184800773822e-01  9.6613348863729354e-02  9.1655797627052296e-02  8.6777879673667499e-02  8.1978228787335669e-02  7.7255545669081216e-02  7.2608616935780176e-02  6.8036039484298413e-02  6.3536620981668027e-02  5.9109117221245198e-02  5.4752222376437495e-02  5.0464772105448460e-02  4.6245636580627456e-02  4.2093456032964362e-02  3.8007150885542150e-02  3.3985424612006931e-02  3.0027178171873333e-02  2.6131366359006626e-02  2.2296709647892762e-02  1.8522021053085973e-02  1.4806250838844943e-02  1.1148262087471069e-02  7.5468519114874058e-03  4.0010262095464717e-03  5.0953712093021193e-04  -2.9286415923319761e-03  -6.3146980077506644e-03  -9.6497131733582330e-03  -1.2934363447151209e-02  -1.6170509790151080e-02  -1.9358759021781462e-02  -2.2500242527729586e-02  -2.5596261021018127e-02  -2.8647846183531892e-02  -3.1655432828974060e-02  -3.4621135476288659e-02  -3.7545430651438762e-02  -4.0429463614699568e-02  -4.3274394110357287e-02  -4.6081229882813698e-02  -4.8851042635158333e-02  -5.1585046104390693e-02  -5.4284191491384907e-02  -5.6949467511013721e-02  -5.9581850020136419e-02  -6.2182972784279783e-02  -6.4753212421041165e-02  -6.7293882349919704e-02  -6.9805646357390144e-02  -7.2290623691801142e-02  -7.4749228609345020e-02  -7.7181700672574113e-02  -7.9589858328758298e-02  -8.1975344873222569e-02  -8.4337819400020192e-02  -8.6679457818523889e-02  -8.9000998271492521e-02  -9.1302732421268629e-02  -9.3586327619936752e-02  -9.5852720083461906e-02  -9.8102883378047706e-02  -1.0033865201379298e-01  -1.0256013016885826e-01  -1.0476778800685478e-01  -1.0696235561910619e-01  -1.0914748328412535e-01  -1.1132221545386015e-01  -1.1348729327208970e-01  -1.1564472755953496e-01  -1.1779496397700544e-01  -1.1993904246781663e-01  -1.2207818804077891e-01  -1.2421444757379430e-01  -1.2634835851998569e-01  -1.2848024059859897e-01  -1.3061270555760263e-01  -1.3274680419453444e-01  -1.3488385494580965e-01  -1.3702548336540102e-01  -1.3917316629494500e-01  -1.4132887763323568e-01  -1.4349471969479874e-01  -1.4567309048160440e-01  -1.4786675592855075e-01  -1.5007753694202758e-01  -1.5230988618558047e-01  -1.5455886117052842e-01  -1.5695391782917026e-01  -1.5870792312975285e-01  -1.6293544285178344e-01  -1.6260149452355571e-01  -1.6718718420385831e-01  -1.6354462280608159e-01  -2.0203618592298744e-01  -1.8086626035652970e-01  -1.7431866937915177e-01  -1.6954078266265621e-01  -1.6630910419656206e-01  -1.6388129080110211e-01  -1.6206108083756793e-01  -1.6072590316368085e-01  -1.5992293277875699e-01  -1.5972458029744432e-01  -1.6012996139266378e-01  -1.6092388251045556e-01  -1.6129790698580332e-01  -1.6108991384187737e-01  -1.6041507262801613e-01  -1.5936373497343337e-01  -1.5797929063534039e-01  -1.5624629239338741e-01  -1.5415161846656741e-01  -1.5172427203005526e-01  -1.4898156772081575e-01  -1.4592738042554498e-01  -1.4257547355453165e-01  -1.3893701738252814e-01  -1.3502416172189546e-01  -1.3085755665783200e-01  -1.2645039006491982e-01  -1.2181535325370464e-01  -1.1697117050703892e-01  -1.1193716944912661e-01  -1.0672449082110644e-01  -1.0136351737946188e-01  -9.5873277883170849e-02  -9.0270125586411343e-02  -8.4585618890379827e-02  -7.8838557404412202e-02  -7.3059473826891347e-02  -6.7271014084390110e-02  -6.1496422040878136e-02  -5.5767955823533437e-02  -5.0106916100572045e-02  -4.4539676602454809e-02  -3.3673488126090126e-02  -2.8384740292572614e-02  -2.3230320617958680e-02  -1.8244465242392472e-02  -1.3453777716068606e-02  -8.8606141851171952e-03  -4.4907922266170354e-03  -3.4938603684373350e-04  3.5148079746106595e-03  7.1270249498091654e-03  1.0487864359668893e-02  1.3576735001858088e-02  1.6396630381149000e-02  1.8955546730031098e-02  2.1258290856043489e-02  2.3310692122218344e-02  2.5129020349084812e-02  2.6714607041128206e-02  2.8082231704597838e-02  2.9263205223461757e-02  3.0246551625182069e-02  3.1062810378004898e-02  3.1725903327281209e-02  3.2244029070006640e-02  3.2638831718729486e-02  3.2914787192820288e-02  3.3102677190372395e-02  3.3193378520306349e-02  3.3207509150696889e-02  3.3149870303410954e-02  3.3028055151714059e-02  3.2851172143138527e-02  3.2628104876880185e-02  3.2362664927029536e-02  3.2055425401223150e-02  3.1713131975353165e-02  3.1336240969196814e-02  3.0927138716802981e-02  3.0486627672812173e-02  3.0014857957377256e-02  2.9511945458653131e-02  2.8977564465100129e-02  2.8410283127884767e-02  2.7810169296081350e-02  2.7174575510831959e-02  2.6502048347226352e-02  2.5793506463575911e-02  2.5044095091171666e-02  2.4251753045859088e-02  2.3420798777494357e-02  2.2541629152916163e-02  2.1621314188613076e-02  2.0649335264129914e-02  1.9634535935316614e-02  1.8569156462629959e-02  1.7449382121975228e-02  1.6285783152992121e-02  1.5064167871169765e-02  1.3795933978417404e-02  1.2475022479523706e-02  1.1100466209485998e-02  9.6722800314784120e-03  8.1926829877168039e-03  6.6648332658571239e-03  5.0794346718416837e-03  3.4541344682731613e-03  1.7727634022056708e-03  0.0000000000000000e+00  0.0000000000000000e+00  0.0000000000000000e+00  0.0000000000000000e+00  0.0000000000000000e+00  0.0000000000000000e+00  0.0000000000000000e+00  0.0000000000000000e+00  0.0000000000000000e+00  1.9288172937803208e-03  3.7302332791781276e-03  5.5040443223811492e-03  7.2249984757833145e-03  8.8968675262270924e-03  1.0518446086643615e-02  1.2088855182660917e-02  1.3606412931564987e-02  1.5068305283906475e-02  1.6472367979484068e-02  1.7814635074876600e-02  1.9092666764196405e-02  2.0301429937324509e-02  2.1437961066329947e-02  2.2497435839918548e-02  2.3473335048493884e-02  2.4365234059414629e-02  2.5162074486366509e-02  2.5859195711265336e-02  2.6450442437185202e-02  2.6928976140282182e-02  2.7288092190218178e-02  2.7522165050483924e-02  2.7620487106322512e-02  2.7581081282188662e-02  2.7392567042570707e-02  2.7052490361049432e-02  2.6549514724462198e-02  2.5878502653528902e-02  2.5036712674470919e-02  2.4013494316099407e-02  2.2803317793014116e-02  2.1420925869318153e-02  1.9851992932411140e-02  1.8070734184096788e-02  1.6117457657619318e-02  1.3968298137469755e-02  1.1624815607423272e-02  9.0881318000418550e-03  6.3660654394332161e-03  3.4497668206723000e-03  3.5283503234155041e-04  -2.9327328795414791e-03  -6.3964554046627058e-03  -1.0049202953512715e-02  -1.3876002167191440e-02  -1.7877474752637301e-02  -2.2045477275964672e-02  -2.6382590625922301e-02  -3.0875513806789084e-02  -3.5521809974057281e-02  -4.0310242435410135e-02  -4.5228231362228137e-02  -5.0267288656807727e-02  -5.5411949157040917e-02  -6.0639815266127932e-02  -6.5894731071987178e-02  -7.1218735660618732e-02  -7.6531286741226431e-02  -8.1774919584390635e-02  -8.6952221855788506e-02  -9.1993885417860841e-02  -9.6881026005138995e-02  -1.0150959458588403e-01  -1.0587397232784784e-01  -1.0986624386134250e-01  -1.1347470753781515e-01  -1.1659072969429049e-01  -1.1921807737601506e-01  -1.2122543654893417e-01  -1.2262693021746221e-01  -1.2334935096511451e-01  -1.2326116163951126e-01  -1.2253019970810265e-01  -1.2101497953986612e-01  -1.1871821933400586e-01  -1.1575285131631130e-01  -1.1213796713180436e-01  -1.0799926307817455e-01  -1.0340595450262235e-01  -9.8356185308164035e-02  -9.2990753556753125e-02  -8.7350117728263094e-02  -8.1531234600294461e-02  -7.5538657023422912e-02  -6.9401819696576841e-02  -6.3175802589407942e-02  -5.6874428481057178e-02  -5.0509398826857364e-02  -4.4105609956792996e-02  -3.7668471060659535e-02  -3.1217313049750575e-02  -2.4755239651918552e-02  -1.8284985547850564e-02  -1.1818617008671524e-02  -5.3574521223299356e-03  1.0972163738824485e-03  7.5417176960166279e-03  1.3972783698650336e-02  2.0389184906082113e-02  2.6790370234944096e-02  3.3174721802385704e-02  3.9542036551961722e-02  4.5890615734920169e-02  5.2220828371517460e-02  5.8531907370378687e-02  6.4823563339157814e-02  7.1095691851189774e-02  7.7347965224418572e-02  8.3580326820992715e-02  8.9792736488237199e-02  9.5985089652776037e-02  1.0215735490520020e-01  1.0830952910943430e-01  1.1444162075166520e-01  1.2055360393632268e-01  1.2664554992270602e-01  1.3271747680769025e-01  1.3876941157626566e-01  1.4480140826320764e-01  1.5081349989920309e-01  1.5680570769225910e-01  1.5680539209005148e-01  1.5680462131876208e-01  1.5680341139661350e-01  1.5680194173812123e-01  1.5680047056315341e-01  1.5679925811218542e-01  1.5679848220490200e-01  1.5679816773640809e-01  -1.5257354706981199e-01  -1.8523851705735409e-01  -1.6074814635497847e-01  -1.4681214127725783e-01  -1.3606365204847806e-01  -1.2536345552384798e-01  -1.1474851725217086e-01  -1.0384144138022704e-01  -9.2516892772438575e-02  -8.3403779960653221e-02  -7.3365052319333157e-02  -6.3486604963744100e-02  -5.2957978986133143e-02  -4.1860999226645358e-02  -3.0154877223113781e-02  -1.4061485908134019e-01  -1.2400956065317367e-01  -1.0418783793501925e-01  -8.1654843429218638e-02  -5.8908034505750939e-02  -3.6414694541313339e-02  -1.7368870368962444e-01  -1.2133065154829659e-01  -1.6242790018162853e-02  6.4877973269196346e-04  1.4574962007265531e-02  -1.6577789490452979e-01  2.4147466184971784e-02  -1.7809384916630384e-02  2.9381982247955105e-02  -4.4696730003351759e-03  3.2223983953431519e-02  -1.1110622031642658e-01  -9.3806354515605095e-02  3.3079185086520843e-02  -7.3444365427160568e-02  9.3476979847785177e-03  -4.7351142692907779e-02  3.2657352225279865e-02  2.4212500455794317e-02  -1.5818552002462855e-01  3.1457432826949586e-02  -2.3989409895730496e-02  -1.2243396658159990e-01  3.9618029391659579e-02  2.9715951044588018e-02  -1.2389032194124986e-03  5.7117580856564501e-02  7.5874663335736810e-03  2.7429346072599531e-02  1.5135849542020506e-02  7.4409655553497128e-02  -1.1693000102740378e-01  2.4663727559469793e-02  2.0620333484608292e-02  -1.0558519560141162e-01  2.4526515008918358e-02  2.1116895059885711e-02  -9.0161804119489458e-02  9.4610452829617692e-02  1.0862779265211302e-01  -1.1859247865194931e-02  1.7979582197352562e-02  1.4256675727907031e-02  2.6726398520978273e-02  -7.2673143809706214e-02  2.7463537627184439e-02  -1.5341401982691019e-01  -4.7747386876524731e-02  2.6589005639601367e-02  1.2607974234782429e-01  -2.8024131955721433e-02  1.0358502797339313e-02  2.3852127524460809e-02  -8.4671625728924838e-03  1.7348152926890462e-02  2.0801623013910326e-02  4.9056390704100450e-02  1.7085238719678087e-02  6.8015930872933644e-02  8.6792535596960332e-02  1.2804061148543058e-02  1.1839193826235540e-01  1.6160581182966558e-03  1.5122201871013777e-01  -1.6092143372638149e-01  8.1581745662715772e-03  5.7500421984442917e-03  1.3619443898353534e-01  -1.7231093932854372e-01  -1.6025854007747595e-01  -1.1729300433216243e-01  -5.9931649196690424e-02  3.8259914513318442e-03  2.9650519853663494e-02  1.3653403676935902e-01  -3.8037127735809355e-02  -6.2554121761957210e-02  -8.3737803107255843e-02  -1.0303062396205760e-01  8.4672529561002075e-02  2.7385643725573186e-02  6.5498486148420618e-02  9.9033789126747179e-02  2.5423015214943806e-02  2.2975982017919144e-02  4.7795122142775662e-02  2.6041182558960048e-02  2.8653828234190583e-02  3.2255488310627092e-02  3.0651103783689175e-02  3.2137055871793462e-02  3.2998799783135635e-02  3.2873177772550083e-02  -2.6179239506764262e-02  1.6662271979225991e-02  3.1104476794240374e-02  2.7096832377312970e-02  2.2718713122655771e-03  1.9974500595236207e-02  8.4279030614103946e-03  -6.9213882818991218e-03  1.3459996141666345e-03  -1.1656611665662500e-02  -2.3601173544257420e-02  1.5156168391389527e-01  -3.5774103167910763e-02  -4.7478523148452439e-02  -5.8282417953514583e-02  -6.8664782484788564e-02  -7.8463195208301237e-02  -8.7768023277380591e-02  -1.4706929684156292e-01  -9.9268043919952351e-02  -1.1029173897445931e-01  -1.2108645054677503e-01  -1.3287965080053624e-01  -1.3184724422440838e-01  -9.3413495616649009e-02  -1.1399517278151725e-01  -7.1251669221443326e-02  -4.7642304895093003e-02  -1.4253604786185026e-01  -1.6393519129556686e-01  1.6957793323207320e-03  1.5106533403775768e-01  4.5461958511097949e-03  -1.6069370107868972e-01  1.5181353132858966e-01  1.3715917262052413e-03  1.4770972277550146e-01  -1.6065962251074931e-01  -1.6031992879361814e-01  -1.5985679938938446e-01  -1.6036084759301686e-01  -1.5988024146641922e-01  -1.6071268024477151e-01  -1.6005043745962089e-01  -1.6116711812798620e-01  -1.6033412043143086e-01  -1.6148746024582714e-01  -1.6053562204237359e-01  -1.6141110682793294e-01  -1.6026336618705403e-01  -1.6077602126719928e-01  -1.5948974320929912e-01  -1.5969031231476719e-01  -1.5822644399624775e-01  -1.5821687187635422e-01  -1.5658098610881221e-01  -1.5619376550872749e-01  -1.5424493718783708e-01  -1.5789539118503632e-01  -1.5473693819952808e-01  -1.5200956457414094e-01  -1.5521416041415143e-01  -1.5720622610470125e-01  -1.5227796947619282e-01  -1.4940204696163506e-01  -1.4959527522268595e-01  -1.4635078447217209e-01  -1.4642857091492456e-01  -1.4286176116001376e-01  -1.4285663137291577e-01  -1.3921380246639625e-01  -1.3887606078305240e-01  -1.3450259573527215e-01  -1.3426997199127538e-01  -1.3007253290974347e-01  -1.2941857445036903e-01  -1.2506116592644376e-01  -1.2416672443225334e-01  -1.1972401934014136e-01  -1.1860195442645191e-01  -1.1412342263558593e-01  -1.1273357813546006e-01  -1.0829022729155152e-01  -1.0659659374053190e-01  -1.0224185838415650e-01  -1.0025743918809371e-01  -9.6058117360297762e-02  -9.3733466854934028e-02  -8.9778914656281336e-02  -8.6989348962044494e-02  -1.5346510034956118e-01  -1.5531302125828406e-01  -8.3424311313042912e-02  -8.0208211378341970e-02  -7.7071146058694640e-02  -7.3858609919544557e-02  -7.0822182863640781e-02  -6.7254827127078601e-02  -6.4678922956639864e-02  -6.0783198295340138e-02  -1.4832550154574928e-01  -5.8754238196798640e-02  -5.4435289324881272e-02  -5.2769628653554633e-02  -4.8231671939703125e-02  -4.7173484810041681e-02  -4.2314398494677968e-02  -1.5077510858793722e-01  -1.5281570352092000e-01  -1.6191242066750444e-01  -4.1742988999836861e-02  -3.6602859698214092e-02  -3.6594443127214223e-02  -3.1182711539218241e-02  -3.1708879203009688e-02  -2.6083384573783477e-02  -1.5858511291204469e-01  -2.7103253045622718e-02  -2.1272749820690159e-02  -1.3854528937011490e-01  -2.2762483812767888e-02  -1.6795877473902359e-02  -1.8715981538356123e-02  -1.2643657200790744e-02  -1.4879405640748990e-02  -8.8056988817601153e-03  -1.5885293581007329e-01  -1.2499221189498345e-01  -1.1378446967596831e-02  -5.2812262242509693e-03  -1.4717234238401600e-01  -1.4851445572416699e-01  -1.4549108451106035e-01  -1.0900744675816258e-01  -8.0674501502535287e-03  -1.9089261616431709e-03  -5.0987539406489261e-03  1.1109665776560594e-03  -2.2780358070465640e-03  3.7188553504748580e-03  -3.7294905601605713e-02  9.9196939283439879e-04  -2.0508764136913219e-02  -5.6589873957098580e-02  3.3408094903533442e-04  6.1072164421373427e-03  9.4984242553612461e-03  1.1723625836315225e-02  8.3414218776334814e-03  1.3727931689293872e-02  1.0449232427294220e-02  1.5597179845596458e-02  1.2349647770844565e-02  1.7219582970511377e-02  1.4089403547404429e-02  1.8715940513863830e-02  1.5727994333304518e-02  2.0028223336319258e-02  1.7146833094966639e-02  2.1227959248367990e-02  1.8567554525711245e-02  2.2423083084046162e-02  1.9834947825131472e-02  2.3401224302065749e-02  2.1030158040084051e-02  2.4249344309668467e-02  2.1983663411879944e-02  2.5022102576556283e-02  -7.6720872091076434e-02  -9.1892828895497561e-02  2.2960710785471242e-02  2.5672128144992860e-02  2.3886720812200179e-02  2.6291778811486907e-02  -1.4566793868409272e-01  -1.1055121262931900e-01  2.4709935200408813e-02  2.6800512167046028e-02  -1.2785482479328361e-01  -7.4502981152829315e-02  -1.4265908646019759e-01  -1.4359814151346162e-01  -1.5025308575487370e-01  -1.4420951389732906e-01  -1.4983718017116801e-01  -1.4411553327480320e-01  -1.5011953710848513e-01  -1.4348842752322741e-01  -1.4775527711511863e-01  -1.4182835064090465e-01  -1.4621653008793539e-01  -1.3973780605260805e-01  -1.4258761095945757e-01  -1.3694434877580877e-01  -1.3907769954830781e-01  -1.3391952652854477e-01  -1.3538908542068187e-01  -1.3058472565624310e-01  -1.3160217871875812e-01  -1.2713380483356926e-01  -1.2774983162251505e-01  -1.2356260399885596e-01  -1.2389673278038145e-01  -1.1995115867653196e-01  -1.2004403943908251e-01  -1.1635391473179388e-01  -1.1587583113692608e-01  -1.1246236926075046e-01  -1.1257895110149477e-01  -1.0897016056045378e-01  -1.0876775698532933e-01  -1.0535944729215421e-01  -1.0516914295347310e-01  -1.0179123923670803e-01  -1.0133061916390215e-01  -9.8157687455471140e-02  -1.3157231769296243e-01  -1.0861123860576090e-01  -1.2251140827562725e-01  -9.7625691624035504e-02  -9.4445256863122884e-02  -9.4734291804804971e-02  -9.1200214795366205e-02  -9.0692126523660807e-02  -8.7585178470709429e-02  -8.6893703107328232e-02  -8.3912496008424833e-02  -8.3110492431777885e-02  -8.0180437732203055e-02  -8.7356734897000271e-02  -1.5505898716894820e-01  -1.4806956417291353e-01  -7.9388400207110341e-02  -7.6392489307226946e-02  -7.7140501066536998e-02  -7.3360790352615085e-02  -7.2580888545591832e-02  -6.9600881468017461e-02  -6.8712332489744968e-02  -6.5814558798399356e-02  -1.4020206323769838e-01  -7.0117986113210379e-02  -6.4867121382698067e-02  -6.2042532651769053e-02  -1.3186222686579238e-01  -6.1136220855547804e-02  -5.8214050565563363e-02  -5.9392181012077987e-02  -5.5244243792018977e-02  -5.4276734711119497e-02  -5.1196768726133331e-02  -5.2121690623089446e-02  -4.8077740493485586e-02  -4.7166853092531817e-02  -4.4042020182790777e-02  -4.3121266699245452e-02  -3.9912669870907712e-02  -4.0858213659378945e-02  -3.6733125306551977e-02  -3.5756971754497831e-02  -3.2603118896260420e-02  -3.1664830784295314e-02  -2.8490504767067038e-02  -1.3891974608582697e-01  -1.0849291647165217e-01  -1.2359624652070858e-01  -2.7645465286758920e-02  -2.4409841174312812e-02  -2.5266888118774127e-02  -2.1033403838169349e-02  -2.0180960940329524e-02  -1.6805729778762681e-02  -2.1889202749197350e-02  2.5362423051150575e-02  2.7223724321126564e-02  2.5955437117258791e-02  2.7579763683978988e-02  2.6483171134730660e-02  2.7864949825397573e-02  -9.0028808952290748e-02  -4.6839445665847183e-02  -1.6173847660706009e-01  -1.5920805727818718e-02  -1.2613154320313220e-02  -1.0067577165455670e-01  2.3098315514661974e-02  2.7086733447518004e-02  1.4585771134037690e-02  2.6919763669637893e-02  2.8070029646282506e-02  2.9102621815882107e-02  2.9088832034188033e-02  2.8201088838130932e-02  2.9022983642002967e-02  2.8264920543359065e-02  2.8898567511727147e-02  2.8246810182545101e-02  2.8708121411865562e-02  2.8156542332281594e-02  2.8459602316563849e-02  2.7982912435066256e-02  2.8139879261903505e-02  2.7733567803821933e-02  2.7760819736557339e-02  2.7411413944134183e-02  2.7320500481675291e-02  2.7019929527232058e-02  2.6821005366363237e-02  2.6548343164775064e-02  2.6247416905465917e-02  2.5995524773191281e-02  2.5622416549274333e-02  2.5366240919117013e-02  2.4910924707187369e-02  2.4676728068763601e-02  2.4159135954148096e-02  2.3892710425361223e-02  2.3321848909918341e-02  2.3055093082254580e-02  2.2437271377808616e-02  2.8784924450208228e-02  -3.7745943612988268e-02  -7.1727377906577711e-02  -1.1605472000446006e-02  -8.3110277358444933e-03  -9.3093681429942780e-03  -4.8562486573374940e-03  -5.8988569304240296e-03  -1.3426712301638540e-03  -4.1972507349930438e-04  3.1132946791385860e-03  4.1564562284648584e-03  7.6616445905594785e-03  6.7158645113285474e-03  1.1252149894385614e-02  1.2056216754762757e-02  1.5753391175007653e-02  1.6543847920452142e-0