<?xml version="1.0"?>
<VTKFile type="UnstructuredGrid"  version="0.1"  >
<UnstructuredGrid>
<Piece  NumberOfPoints="2886" NumberOfCells="5412">
<Points>
<DataArray  type="Float64"  NumberOfComponents="3"  format="ascii">0 0.1 0  0.98 0.1 0  1 0.1 0  1 0 0  1.5 0 0  3 0 0  3 0.3 0  0 0.3 0  0.01975375321854102 0.1 0  0.03918897458218897 0.1 0  0.05831079002627837 0.1 0  0.07712425666319796 0.1 0  0.0956343475259058 0.1 0  0.1138459546796227 0.1 0  0.1317638870668193 0.1 0  0.1493928840275937 0.1 0  0.1667376092280033 0.1 0  0.1838026357802664 0.1 0  0.2005924801287244 0.1 0  0.2171115811543574 0.1 0  0.2333643037107681 0.1 0  0.2493549444060462 0.1 0  0.2650877293306821 0.1 0  0.2805668058011438 0.1 0  0.2957962848620976 0.1 0  0.3107801766802674 0.1 0  0.3255224447361181 0.1 0  0.3400269848175519 0.1 0  0.3542976327080778 0.1 0  0.3683381609158136 0.1 0  0.3821522744564845 0.1 0  0.3957436316838916 0.1 0  0.4091158196437086 0.1 0  0.4222723742184605 0.1 0  0.4352167733293057 0.1 0  0.4479524348643424 0.1 0  0.4604827295467524 0.1 0  0.4728109659990664 0.1 0  0.4849404035409129 0.1 0  0.4968742471455402 0.1 0  0.508615651843175 0.1 0  0.520167721130924 0.1 0  0.5315335063628542 0.1 0  0.5427160117228604 0.1 0  0.5537181940261912 0.1 0  0.564542961924507 0.1 0  0.575193173270606 0.1 0  0.5856716438765114 0.1 0  0.5959811458006617 0.1 0  0.6061243988680743 0.1 0  0.6161040893285659 0.1 0  0.6259228503970299 0.1 0  0.6355832809287655 0.1 0  0.6450879281079505 0.1 0  0.6544393102991295 0.1 0  0.663639896558931 0.1 0  0.6726921201956305 0.1 0  0.6815983691630338 0.1 0  0.6903610031396646 0.1 0  0.6989823343332418 0.1 0  0.7074646404270378 0.1 0  0.7158101645005117 0.1 0  0.7240211149852543 0.1 0  0.7320996585612525 0.1 0  0.7400479319727645 0.1 0  0.7478680336617921 0.1 0  0.755562036504958 0.1 0  0.7631319665092091 0.1 0  0.7705798279317605 0.1 0  0.777907588066146 0.1 0  0.7851171851013118 0.1 0  0.7922105226004981 0.1 0  0.7991894774550319 0.1 0  0.8060558928136696 0.1 0  0.812811583201334 0.1 0  0.8194583352091183 0.1 0  0.8259979035038147 0.1 0  0.8324320194413813 0.1 0  0.8387623808293405 0.1 0  0.8449906627004957 0.1 0  0.8511185094880469 0.1 0  0.8571475426008311 0.1 0  0.8630793533568246 0.1 0  0.8689155114558531 0.1 0  0.8746575581239063 0.1 0  0.8803070109173519 0.1 0  0.885865363938836 0.1 0  0.8913340851680313 0.1 0  0.8967146206523592 0.1 0  0.9020083930695622 0.1 0  0.9072167995950768 0.1 0  0.9123412183131177 0.1 0  0.9173830029719022 0.1 0  0.9223434865647732 0.1 0  0.9272239785872722 0.1 0  0.9320257720706087 0.1 0  0.9367501330378739 0.1 0  0.9413983102716995 0.1 0  0.9459715351562933 0.1 0  0.9504710127113115 0.1 0  0.9548979346500661 0.1 0  0.9592534708344373 0.1 0  0.9635387708980176 0.1 0  0.9677549682252325 0.1 0  0.971903177251235 0.1 0  0.9759844952956497 0.1 0  0.9840000000000086 0.1 0  0.987999999999974 0.1 0  0.9919999999999393 0.1 0  0.9959999999999913 0.1 0  1 0.09591793123533533 0  1 0.09133596463859224 0  1 0.08619288104391448 0  1 0.08041996484521211 0  1 0.07394008421771697 0  1 0.06666666567302955 0  1 0.05850252932209174 0  1 0.04933859630113544 0  1 0.03905242821848202 0  1 0.02750659386753798 0  1 0.01454683679239736 0  1.015625 0 0  1.03125 0 0  1.046875 0 0  1.0625 0 0  1.078125 0 0  1.09375 0 0  1.109375 0 0  1.125 0 0  1.140625 0 0  1.15625 0 0  1.171875 0 0  1.1875 0 0  1.203125 0 0  1.21875 0 0  1.234375 0 0  1.25 0 0  1.265625 0 0  1.28125 0 0  1.296875 0 0  1.3125 0 0  1.328125 0 0  1.34375 0 0  1.359375 0 0  1.375 0 0  1.390625 0 0  1.40625 0 0  1.421875 0 0  1.4375 0 0  1.453125 0 0  1.46875 0 0  1.484375 0 0  1.515920751924515 0 0  1.531989369316721 0 0  1.54820720925872 0 0  1.564575665560501 0 0  1.581096138674279 0 0  1.597770029901263 0 0  1.614598783332311 0 0  1.631583831055205 0 0  1.64872661129721 0 0  1.666028606716533 0 0  1.683491276608443 0 0  1.701116134125304 0 0  1.718904673324128 0 0  1.736858414799339 0 0  1.754978895814663 0 0  1.773267661782904 0 0  1.791726281103402 0 0  1.810356325314689 0 0  1.8291593848892 0 0  1.848137076690385 0 0  1.867291007717254 0 0  1.886622833871288 0 0  1.90613418642363 0 0  1.925826753299799 0 0  1.945702199101513 0 0  1.96576223584749 0 0  1.986008569283268 0 0  2.006442931928877 0 0  2.02706707547783 0 0  2.047882750887917 0 0  2.06889175187935 0 0  2.090095860038271 0 0  2.111496891648636 0 0  2.133096679109554 0 0  2.154897066851056 0 0  2.176899916687499 0 0  2.199107102752146 0 0  2.22152053937028 0 0  2.244142122958061 0 0  2.266973806444078 0 0  2.290017523268154 0 0  2.313275249499252 0 0  2.336748971745516 0 0  2.360440702338606 0 0  2.384352453384031 0 0  2.408486280477412 0 0  2.432844240041185 0 0  2.457428414757088 0 0  2.482240901796653 0 0  2.507283830121838 0 0  2.532559332080812 0 0  2.558069568787417 0 0  2.583816724966441 0 0  2.60980299606584 0 0  2.636030600971886 0 0  2.662501790984011 0 0  2.689218818279327 0 0  2.716183964547616 0 0  2.743399548861297 0 0  2.77086788244719 0 0  2.798591312896326 0 0  2.826572223178268 0 0  2.854812990138617 0 0  2.883316031690714 0 0  2.912083780657189 0 0  2.941118704633482 0 0  2.970423276998917 0 0  3 0.02999999999994495 0  3 0.05999999999987042 0  3 0.089999999999783 0  3 0.119999999999701 0  3 0.149999999999619 0  3 0.179999999999692 0  3 0.2099999999997737 0  3 0.2399999999998511 0  3 0.2699999999999185 0  2.970138294777171 0.3 0  2.940375666438236 0.3 0  2.910711782853056 0.3 0  2.881146331305122 0.3 0  2.851678975030285 0.3 0  2.822309388626621 0.3 0  2.793037250095074 0.3 0  2.76386223529133 0.3 0  2.734784017903872 0.3 0  2.705802289276642 0.3 0  2.676916713794697 0.3 0  2.648126987654635 0.3 0  2.619432780406184 0.3 0  2.590833779385199 0.3 0  2.562329669847737 0.3 0  2.533920134950189 0.3 0  2.505604855727852 0.3 0  2.477383539822502 0.3 0  2.449255847639465 0.3 0  2.421221492569094 0.3 0  2.393280152486815 0.3 0  2.36543151914496 0.3 0  2.337675285481809 0.3 0  2.310011142385583 0.3 0  2.282438797441587 0.3 0  2.254957931061538 0.3 0  2.227568248063605 0.3 0  2.200269436651085 0.3 0  2.173061204949961 0.3 0  2.145943251515011 0.3 0  2.118915272469994 0.3 0  2.091976978084957 0.3 0  2.065128060700849 0.3 0  2.038368218849433 0.3 0  2.01169717777258 0.3 0  1.985114624111908 0.3 0  1.958620267850966 0.3 0  1.93221382054972 0.3 0  1.905894991850698 0.3 0  1.879663489459713 0.3 0  1.853519019126419 0.3 0  1.827461291053897 0.3 0  1.801490031354372 0.3 0  1.775604937580312 0.3 0  1.74980572560258 0.3 0  1.724092118631866 0.3 0  1.698463829173586 0.3 0  1.672920575782554 0.3 0  1.647462076974085 0.3 0  1.622088043536933 0.3 0  1.5967981978949 0.3 0  1.571592267767068 0.3 0  1.546469970305736 0.3 0  1.521431023814044 0.3 0  1.496475156230927 0.3 0  1.471602093687753 0.3 0  1.446811560490646 0.3 0  1.422103279101731 0.3 0  1.397476971708191 0.3 0  1.37293238939876 0.3 0  1.348469231419202 0.3 0  1.324087248732772 0.3 0  1.299786165921677 0.3 0  1.275565710847046 0.3 0  1.251425617644257 0.3 0  1.227365618676339 0.3 0  1.203385446174014 0.3 0  1.179484853067473 0.3 0  1.155663548773374 0.3 0  1.131921292279077 0.3 0  1.108257802159295 0.3 0  1.084672829009693 0.3 0  1.061166115303374 0.3 0  1.037737392995421 0.3 0  1.01438640299116 0.3 0  0.991112899770314 0.3 0  0.9679166155523955 0.3 0  0.944797284182564 0.3 0  0.921754678526042 0.3 0  0.8987885143602501 0.3 0  0.8758985548820624 0.3 0  0.8530845484099929 0.3 0  0.8303462351786988 0.3 0  0.8076833651172373 0.3 0  0.7850956864865304 0.3 0  0.7625829601354557 0.3 0  0.7401449314598274 0.3 0  0.717781337993959 0.3 0  0.6954919649675473 0.3 0  0.6732765357561226 0.3 0  0.6511348120768439 0.3 0  0.6290665642016573 0.3 0  0.6070715355430467 0.3 0  0.5851494825775325 0.3 0  0.5633001690203812 0.3 0  0.5415233562273221 0.3 0  0.5198187909431873 0.3 0  0.4981862401387795 0.3 0  0.4766254686134248 0.3 0  0.4551362360485234 0.3 0  0.4337182975262159 0.3 0  0.4123714223228037 0.3 0  0.3910953802377493 0.3 0  0.3698899313205595 0.3 0  0.3487548463710963 0.3 0  0.3276898864081783 0.3 0  0.3066948129116018 0.3 0  0.2857694003037476 0.3 0  0.2649134227095047 0.3 0  0.2441266417321288 0.3 0  0.2234088223399122 0.3 0  0.2027597568977288 0.3 0  0.1821792020676698 0.3 0  0.1616669305402443 0.3 0  0.1412227158799362 0.3 0  0.12084633013886 0.3 0  0.1005375673448281 0.3 0  0.08029618164595353 0.3 0  0.06012194778526769 0.3 0  0.04001466495039718 0.3 0  0.01997408913631205 0.3 0  0 0.2800000000000553 0  0 0.2600000000001105 0  0 0.2400000000001658 0  0 0.2200000000002211 0  0 0.2000000000002764 0  0 0.1800000000002244 0  0 0.1600000000001691 0  0 0.140000000000115 0  0 0.1200000000000564 0  1.13346801534201 0.01255848438672509 0  1.003577645172735 0.09351054173913405 0  0.9777559943702486 0.1034978156913738 0  0.9524533750752109 0.1040889939962738 0  0.9296242411226409 0.1041520033606139 0  0.9046110503652111 0.104409422380137 0  0.8777709649694228 0.1053360318797398 0  0.8483859145648608 0.1061007868330701 0  0.8162363822948977 0.1052777104363292 0  0.7893110024210437 0.1060761643971561 0  0.7587949382612539 0.1067265405088633 0  0.7280603867732535 0.1069398153264939 0  0.6947001989413015 0.1075609887579097 0  0.6590363283767549 0.1076715322596598 0  0.6210028614493155 0.1072970410408442 0  1.1953125 0.01353164693413185 0  1.258193991486058 0.01269648635163345 0  1.3201967268638 0.01407907077719561 0  1.383538555392096 0.01434101079053473 0  1.445312500000001 0.01303671693628424 0  1.508925448095738 0.01398525724792267 0  0.9939176689634008 0.1034638089837981 0  1.120967497222226 0.2796788492172345 0  1.572835902117391 0.01424132418857359 0  1.637573277451887 0.01212536916586023 0  1.709730776795181 0.01466855431023635 0  1.005631976950563 0.07074019818158772 0  1.784944696816299 0.01454708406461822 0  0.5805605730631225 0.1101465090472147 0  1.855621181165637 0.01550931272897607 0  0.5366111276616774 0.1096761308243709 0  1.935200147913231 0.01760344159641829 0  1.214922267975168 0.2799787705802257 0  1.31178773425331 0.2792
[...]
<PointData  Scalars="pressure"> 
<DataArray  type="Float64"  Name="pressure"  format="ascii">1.5615393588747134e-01  -1.6597565308017029e-01  -2.1327643566633520e-01  -1.6011874410709448e-01  -3.8541247946824224e-02  0.0000000000000000e+00  0.0000000000000000e+00  1.5616168194386015e-01  1.5022781397829840e-01  1.4439717601434462e-01  1.3866045306026892e-01  1.3301611986720652e-01  1.2746266138957579e-01  1.2199859763857607e-01  1.1662249455093270e-01  1.1133287818030013e-01  1.0612835322735455e-01  1.0100753000698007e-01  9.5969000008334276e-02  9.1011412439532077e-02  8.6133452576136887e-02  8.1333752674700777e-02  7.6611012819960758e-02  7.1964020226164674e-02  6.7391368437878324e-02  6.2891865334439287e-02  5.8464265621469912e-02  5.4107260760270115e-02  4.9819686165498270e-02  4.5600412003825974e-02  4.1448073642733146e-02  3.7361591841490641e-02  3.3339665721961613e-02  2.9381195553225926e-02  2.5485135993421091e-02  2.1650202584213806e-02  1.7875204847014381e-02  1.4159091926618088e-02  1.0500723770804724e-02  6.8988927260530070e-03  3.3526037953843912e-03  -1.3939717077095834e-04  -3.5781386082135800e-03  -6.9648142029793570e-03  -1.0300508747960586e-02  -1.3585894996278857e-02  -1.6822853537750145e-02  -2.0011986342145235e-02  -2.3154431174677453e-02  -2.6251497903007161e-02  -2.9304222706629988e-02  -3.2313033940052333e-02  -3.5280071956350953e-02  -3.8205807870182656e-02  -4.1091394774205627e-02  -4.3938000802203010e-02  -4.6746639198523683e-02  -4.9518388938634028e-02  -5.2254473985615474e-02  -5.4955850731875706e-02  -5.7623514250382840e-02  -6.0258446820423257e-02  -6.2862301752196981e-02  -6.5435450690583596e-02  -6.7979220933692949e-02  -7.0494277226058194e-02  -7.2982770423327348e-02  -7.5445110348467598e-02  -7.7881530939611587e-02  -8.0293876445852022e-02  -8.2683812625022557e-02  -8.5050981383570479e-02  -8.7397593825388267e-02  -8.9724392482140591e-02  -9.2031666608716658e-02  -9.4321109682763388e-02  -9.6593668657757828e-02  -9.8850330431778433e-02  -1.0109296049991152e-01  -1.0332166088143596e-01  -1.0553690214347995e-01  -1.0773942984380397e-01  -1.0993296800129126e-01  -1.1211653680882504e-01  -1.1429089366490874e-01  -1.1645809344314073e-01  -1.1861859479674988e-01  -1.2077346459240965e-01  -1.2292396457312657e-01  -1.2507219915150738e-01  -1.2721872771419251e-01  -1.2936389746658836e-01  -1.3151040734284969e-01  -1.3365936254480909e-01  -1.3581214947974748e-01  -1.3797048529200592e-01  -1.4013594157542703e-01  -1.4231061728861868e-01  -1.4449676679087306e-01  -1.4669697815726446e-01  -1.4891430519451060e-01  -1.5115069766534731e-01  -1.5341168915494202e-01  -1.5569464989899093e-01  -1.5809777673421085e-01  -1.6003725469904728e-01  -1.6450140508906061e-01  -1.6494213845519801e-01  -1.6937928043991862e-01  -1.6536998528994531e-01  -2.0155842661224560e-01  -1.8048975231390663e-01  -1.7395459561767065e-01  -1.6918129671902132e-01  -1.6595057972832825e-01  -1.6352259876006206e-01  -1.6170160720652083e-01  -1.6036516047076468e-01  -1.5956080879413634e-01  -1.5936123627775081e-01  -1.5976605069704994e-01  -1.6056025635771981e-01  -1.6093376639783241e-01  -1.6072471482963818e-01  -1.6004825481204762e-01  -1.5899464949439934e-01  -1.5760719402026119e-01  -1.5587031887372929e-01  -1.5377081720558319e-01  -1.5133770660860299e-01  -1.4858832505754740e-01  -1.4552655365018125e-01  -1.4216620981789069e-01  -1.3851853711194528e-01  -1.3459576029730452e-01  -1.3041865554147047e-01  -1.2600054031461372e-01  -1.2135423969465101e-01  -1.1649863732388661e-01  -1.1145323471459363e-01  -1.0622939285709310e-01  -1.0085760858906363e-01  -9.5357197935769106e-02  -8.9744663177809492e-02  -8.4051787550773388e-02  -7.8297489920236857e-02  -7.2512608206287771e-02  -6.6719858846850791e-02  -6.0942641823734787e-02  -5.5213338148031345e-02  -4.9553340857798084e-02  -4.3989082501080863e-02  -3.3134818648450165e-02  -2.7855121038312339e-02  -2.2711811139743437e-02  -1.7739026256262599e-02  -1.2963187903702905e-02  -8.3867213873945017e-03  -4.0349746822909774e-03  8.7064630198337151e-05  3.9306862420602556e-03  7.5214361466167251e-03  1.0860278989672756e-02  1.3926815126264928e-02  1.6724243096390871e-02  1.9260845027898783e-02  2.1541652724573725e-02  2.3572674831161385e-02  2.5370383807654578e-02  2.6936304132962316e-02  2.8285238526392861e-02  2.9448667882109227e-02  3.0415684419505328e-02  3.1216840844916365e-02  3.1866092000770112e-02  3.2371609496440482e-02  3.2755027348070988e-02  3.3020747372301970e-02  3.3199482148411417e-02  3.3282079695874892e-02  3.3289044262039887e-02  3.3225127533983267e-02  3.3097824939329452e-02  3.2916144549289532e-02  3.2688874386539647e-02  3.2419751798303163e-02  3.2109286987403132e-02  3.1764136654358184e-02  3.1384696843021316e-02  3.0973297484763525e-02  3.0530684550055455e-02  3.0056964972039909e-02  2.9552219144421309e-02  2.9016086935023663e-02  2.8447111735086020e-02  2.7845343837764380e-02  2.7208113085308589e-02  2.6533963406744149e-02  2.5823800057066981e-02  2.5072767681354646e-02  2.4278805433121158e-02  2.3446225882633429e-02  2.2565436395730370e-02  2.1643479058968261e-02  2.0669885945466451e-02  1.9653433283812423e-02  1.8586397502421168e-02  1.7464998613807192e-02  1.6299709315944183e-02  1.5076487469572174e-02  1.3806610156933973e-02  1.2484094003383918e-02  1.1107985884319715e-02  9.6784239119833242e-03  8.1975729714688222e-03  6.6686122607381671e-03  5.0823014125636733e-03  3.4561954540889318e-03  1.7745537112311327e-03  0.0000000000000000e+00  0.0000000000000000e+00  0.0000000000000000e+00  0.0000000000000000e+00  0.0000000000000000e+00  0.0000000000000000e+00  0.0000000000000000e+00  0.0000000000000000e+00  0.0000000000000000e+00  1.9308424451898881e-03  3.7357125967524521e-03  5.5130517398848406e-03  7.2373365736928446e-03  8.9123938275393368e-03  1.0537114048171897e-02  1.2110696846530693e-02  1.3631523232371363e-02  1.5096824470309817e-02  1.6504481772512247e-02  1.7850556207104438e-02  1.9132631031031137e-02  2.0345675305680475e-02  2.1486730287329402e-02  2.2550969045318111e-02  2.3531864122784209e-02  2.4428979721814841e-02  2.5231266216500622e-02  2.5934056707287274e-02  2.6531188588960183e-02  2.7015825987495960e-02  2.7381251111122974e-02  2.7621855480923805e-02  2.7726909585683135e-02  2.7694413733888507e-02  2.7513007587565468e-02  2.7180183903307696e-02  2.6684612085701189e-02  2.6021137024015477e-02  2.5186982139711937e-02  2.4171492254973108e-02  2.2969099426661987e-02  2.1594516588125178e-02  2.0033429351616019e-02  1.8260033444273429e-02  1.6314604977244226e-02  1.4173256265721638e-02  1.1837615521638999e-02  9.3087675383774406e-03  6.5945351775348656e-03  3.6861332154808023e-03  5.9708497320298934e-04  -2.6805042432541644e-03  -6.1361724989671615e-03  -9.7807227055214368e-03  -1.3599319481928804e-02  -1.7592476866545262e-02  -2.1752208510125468e-02  -2.6081023409675514e-02  -3.0565747754314785e-02  -3.5204052514115264e-02  -3.9984803933726602e-02  -4.4895656579583852e-02  -4.9928232676663235e-02  -5.5067180408278633e-02  -6.0290467941976143e-02  -6.5542761380928974e-02  -7.0865159231460639e-02  -7.6178230499553828e-02  -8.1425225563204195e-02  -8.6608466828129352e-02  -9.1659297514469704e-02  -9.6559126913838708e-02  -1.0120448159113091e-01  -1.0559006239511266e-01  -1.0960853753996026e-01  -1.1324829912090208e-01  -1.1640137546692787e-01  -1.1907139862478525e-01  -1.2112734515724496e-01  -1.2258294236856643e-01  -1.2336437709942152e-01  -1.2333883738038967e-01  -1.2267295173958609e-01  -1.2122250305931537e-01  -1.1898817879560254e-01  -1.1608109384719700e-01  -1.1251849224758333e-01  -1.0842593909996316e-01  -1.0387249035760304e-01  -9.8855442419656145e-02  -9.3517233930834248e-02  -8.7898686298424816e-02  -8.2098341190115970e-02  -7.6120725162351258e-02  -6.9995757785747445e-02  -6.3779506272916175e-02  -5.7486044835848453e-02  -5.1127281643023992e-02  -4.4728584781939744e-02  -3.8295465206617196e-02  -3.1847625362246737e-02  -2.5388230373368435e-02  -1.8920067795063545e-02  -1.2455439507050943e-02  -5.9956910606589154e-03  4.5785879378502855e-04  6.9014660957171219e-03  1.3331797653013632e-02  1.9747598086558734e-02  2.6148304346591520e-02  3.2532265325690098e-02  3.8899272755551960e-02  4.5247592850123051e-02  5.1577600693897045e-02  5.7888512560605829e-02  6.4180031998587850e-02  7.0452051145978273e-02  7.6704234528767040e-02  8.2936522944707339e-02  8.9148874072138201e-02  9.5341180029814093e-02  1.0151340733333571e-01  1.0766555143752991e-01  1.1379761964679080e-01  1.1990958419083322e-01  1.2600151651735966e-01  1.3207343362112295e-01  1.3812536167552023e-01  1.4415735459456896e-01  1.5016944460638881e-01  1.5616165202013738e-01  1.5616133006848615e-01  1.5616054378211028e-01  1.5615930949913259e-01  1.5615781024708067e-01  1.5615630944797790e-01  1.5615507258523026e-01  1.5615428105948712e-01  1.5615396026445602e-01  -1.5218958549978281e-01  -1.8481915078127170e-01  -1.6192350186195156e-01  -1.4785213740122152e-01  -1.3700333157124492e-01  -1.2622949655314311e-01  -1.1555909760096657e-01  -1.0460839897009996e-01  -9.3249611235396879e-02  -8.4115665425153641e-02  -7.4059285355119547e-02  -6.4167759424229115e-02  -5.3628818264929573e-02  -4.2523968912683417e-02  -3.0811994339107127e-02  -1.4020142031378924e-01  -1.2355473291521496e-01  -1.0368891487003035e-01  -8.1118905320721718e-02  -5.8355493643254847e-02  -3.5874382412160087e-02  -1.7499614844526731e-01  -1.2125445382875291e-01  -1.5745637074526930e-02  1.0778289813810455e-03  1.4914722925369191e-02  -1.6541623906374570e-01  2.4397505298451059e-02  -1.8462296311528629e-02  2.9562472488009937e-02  -5.1195217892643346e-03  3.2347710772662526e-02  -1.1086433313096283e-01  -9.3479475361811476e-02  3.3164243672548638e-02  -7.3093002672497798e-02  8.6999054244751677e-03  -4.7017769606951379e-02  3.2721467553747455e-02  2.3566100884824297e-02  -1.5781457145271563e-01  3.1507931056144529e-02  -2.3694260629517013e-02  -1.2254474605620520e-01  3.8972521710999068e-02  2.9757608328308829e-02  -9.9239237158614763e-04  5.6472668791948427e-02  7.8109907390030301e-03  2.7463754988937172e-02  1.5335195994736872e-02  7.3765077374213991e-02  -1.1722517718017653e-01  2.4691574390798381e-02  2.0796780698862934e-02  -1.0602920449308187e-01  2.4679425903527865e-02  2.1137910444823244e-02  -9.0698009091746190e-02  9.3966085699329141e-02  1.0798350597111527e-01  -1.1588513816055784e-02  1.7995491740267020e-02  1.4267352286661693e-02  2.6857161787746667e-02  -7.3260097402808630e-02  2.7566044839760811e-02  -1.5453328430683341e-01  -4.8367134982934275e-02  2.6672924214681672e-02  1.2543551003058262e-01  -2.8655610354465632e-02  1.0364533953850487e-02  2.3913821340122654e-02  -9.1046415384534105e-03  1.6706882491661669e-02  2.0848767474746264e-02  4.8413279009226595e-02  1.7120024255428155e-02  6.7372349510908008e-02  8.6148705447945784e-02  1.2828465427381940e-02  1.1774792653351929e-01  1.6188626866423766e-03  1.5057790091329987e-01  -1.6055936108145888e-01  8.1734595453183522e-03  5.7522043460175656e-03  1.3555039257707469e-01  -1.7194100185871714e-01  -1.5989244744254660e-01  -1.1712317089328628e-01  -6.0539002091967282e-02  3.1863024654373837e-03  2.9008308714157299e-02  1.3588982045343798e-01  -3.7717154826866987e-02  -6.2205791465655760e-02  -8.3392514207485210e-02  -1.0273654132600123e-01  8.4028076659674489e-02  2.7502280568470802e-02  6.4853759172472547e-02  9.8389863455014867e-02  2.5495379016949263e-02  2.3000402059005238e-02  4.7149934507035009e-02  2.6072114303492877e-02  2.8691806254621057e-02  3.1609607505254586e-02  3.0696824775257248e-02  3.2193504830105857e-02  3.3073139984710634e-02  3.2974777796558656e-02  -2.5656331321727278e-02  1.6015247027897504e-02  3.1254252025543827e-02  2.7310439752532594e-02  1.6231332365661461e-03  2.0267741637739464e-02  8.8115867945048158e-03  -6.4577040350874077e-03  1.3457662694302680e-03  -1.2307944353874353e-02  -2.4255852742081585e-02  1.5091750903302142e-01  -3.6433794157624787e-02  -4.8145148361235707e-02  -5.8958074960554926e-02  -6.9352362499396802e-02  -7.9165789597892625e-02  -8.8489280028479250e-02  -1.4667197640421031e-01  -1.0001990693493006e-01  -1.1108288499065092e-01  -1.2192835389745001e-01  -1.3244671004252201e-01  -1.3275531074434288e-01  -9.2894679380016665e-02  -1.1351699262174761e-01  -7.0705131654271711e-02  -4.7091812095283889e-02  -1.4353189925770385e-01  -1.6575514380646322e-01  1.7001006696177824e-03  1.5042126464330174e-01  4.5548938519346244e-03  -1.6032963930221536e-01  1.5116932606503644e-01  1.3715771006171118e-03  1.4706566847895802e-01  -1.6029479746874212e-01  -1.5995471989824375e-01  -1.5949034971811496e-01  -1.5999555784155428e-01  -1.5951375818610586e-01  -1.6034733668072593e-01  -1.5968373648786000e-01  -1.6080140271290944e-01  -1.5996699403828590e-01  -1.6112088867418548e-01  -1.6016759993617394e-01  -1.6104328084524064e-01  -1.5989385377538184e-01  -1.6040713579826890e-01  -1.5911874464392203e-01  -1.5932211419626099e-01  -1.5785537237309133e-01  -1.5785286790286393e-01  -1.5621332795083714e-01  -1.5584140010033795e-01  -1.5388508150772426e-01  -1.5755127652823611e-01  -1.5436266504654214e-01  -1.5164208801684501e-01  -1.5489246568881626e-01  -1.5690029112329365e-01  -1.5189847126971751e-01  -1.4902680768204751e-01  -1.4920851040380781e-01  -1.4596728533880282e-01  -1.4603376356142378e-01  -1.4247006127078132e-01  -1.4245288103444984e-01  -1.3881175603188012e-01  -1.3846226906795236e-01  -1.3409135055258115e-01  -1.3384549354710878e-01  -1.2964930436483710e-01  -1.2898278810945207e-01  -1.2462703762364884e-01  -1.2371923868662602e-01  -1.1927930547094980e-01  -1.1814288260442876e-01  -1.1366864947727093e-01  -1.1226334829153539e-01  -1.0782607071835350e-01  -1.0611592416964898e-01  -1.0176987612974960e-01  -9.9767605013230926e-02  -9.5579567691660622e-02  -9.3237047069571741e-02  -8.9295763505298706e-02  -8.6485175338616632e-02  -1.5319272491073516e-01  -1.5507280380043531e-01  -8.2939771216965261e-02  -7.9702254647215531e-02  -7.6585767872136362e-02  -7.3351683402440401e-02  -7.0340223703893701e-02  -6.6749793573986443e-02  -6.4202299086389580e-02  -6.0282885634957477e-02  -1.4796925343252310e-01  -5.8284630603993873e-02  -5.3942291450935986e-02  -5.2315481375579655e-02  -4.7749589615078088e-02  -4.6726100768162478e-02  -4.1844310158528603e-02  -1.5057059600792644e-01  -1.5266639684604610e-01  -1.6154505017440959e-01  -4.1309716492642236e-02  -3.6147434403368262e-02  -3.6176381869857013e-02  -3.0744049055729382e-02  -3.1307325326137732e-02  -2.5662796028676427e-02  -1.5831733888669625e-01  -2.6718992202895499e-02  -2.0871597709499038e-02  -1.3816427986587243e-01  -2.2396095153619892e-02  -1.6414817968341176e-02  -1.8367353730331944e-02  -1.2282920161144680e-02  -1.4547898767518280e-02  -8.4652656375091197e-03  -1.5848095951083960e-01  -1.2457763433950084e-01  -1.1063973726965437e-02  -4.9605393047821699e-03  -1.4705026165421128e-01  -1.4845953426120734e-01  -1.4531665988810866e-01  -1.0856374195258670e-01  -7.7691644551874713e-03  -1.6074470339541148e-03  -4.8159640176890705e-03  1.3941388460349544e-03  -2.0095116231747946e-03  3.9851873660542549e-03  -3.6805780467835378e-02  1.3173269150818904e-03  -2.0072236760245082e-02  -5.6070655583204766e-02  5.8959401416410861e-04  6.3580888432562379e-03  9.7621193265660863e-03  1.1969674144506535e-02  8.5781715075158461e-03  1.3957830633390745e-02  1.0673122531292087e-02  1.5812017852191294e-02  1.2561816480583295e-02  1.7420636312926521e-02  1.4290945367243386e-02  1.8904792814570748e-02  1.5919890435166343e-02  2.0206085053958125e-02  1.7330307209698286e-02  2.1396122581659963e-02  1.8742980890553044e-02  2.2581932735479905e-02  2.0003096013479937e-02  2.3552159182697988e-02  2.1191567638806984e-02  2.4393083849256467e-02  2.2139480734202979e-02  2.5159419405450481e-02  -7.6199006338824399e-02  -9.1434314038002409e-02  2.3110781159336184e-02  2.5803565934914396e-02  2.4031004689255259e-02  2.6417744869672233e-02  -1.4526695066858505e-01  -1.1006959224485707e-01  2.4848677253371435e-02  2.6921275981776072e-02  -1.2741047321972135e-01  -7.4042784934657491e-02  -1.4261962484096255e-01  -1.4363717975290502e-01  -1.5029479308947721e-01  -1.4434700630361613e-01  -1.5001041257508316e-01  -1.4436201193384551e-01  -1.5044104402482383e-01  -1.4385153502173401e-01  -1.4821011299552830e-01  -1.4229781885891871e-01  -1.4679117174949452e-01  -1.4029814380309880e-01  -1.4325171100938855e-01  -1.3757386583488845e-01  -1.3980066773216010e-01  -1.3459859031912222e-01  -1.3614616403720156e-01  -1.3129516433726701e-01  -1.3237663878541336e-01  -1.2786216453191232e-01  -1.2853016234621281e-01  -1.2429978760607083e-01  -1.2467643414503440e-01  -1.2069156296226008e-01  -1.2081913617993738e-01  -1.1709397090858104e-01  -1.1664288338848633e-01  -1.1319703030554751e-01  -1.1328353385063955e-01  -1.0967585613568626e-01  -1.0949919692994467e-01  -1.0606499514813938e-01  -1.0589869469997601e-01  -1.0249609977993310e-01  -1.0205462055211764e-01  -9.8860098707112834e-02  -1.3215080958423481e-01  -1.0928225540352805e-01  -1.2319613054760238e-01  -9.8344437068494855e-02  -9.5144978922963336e-02  -9.5414701719603312e-02  -9.1880664313993068e-02  -9.1389052188324799e-02  -8.8265807794862469e-02  -8.7587592846333454e-02  -8.4592220888757036e-02  -8.3801208232972754e-02  -8.0858195531531174e-02  -8.8020243003527218e-02  -1.5528019798469511e-01  -1.4877913042672855e-01  -8.0075938409481753e-02  -7.7068633933456560e-02  -7.7805525923201849e-02  -7.4025471135843790e-02  -7.3255482775567857e-02  -7.0265591224759560e-02  -6.9385154975085919e-02  -6.6478719840576392e-02  -1.4102019787749689e-01  -7.0772379718710948e-02  -6.5538130760559449e-02  -6.2706124247542100e-02  -1.3268937476909107e-01  -6.1805466094815104e-02  -5.8876675531126410e-02  -6.0048420451144044e-02  -5.5900301017566004e-02  -5.4938458385982429e-02  -5.1852833064728099e-02  -5.2771314552804843e-02  -4.8728259865962825e-02  -4.7822812606853622e-02  -4.4693154789923965e-02  -4.3776965565744022e-02  -4.0564192132605786e-02  -4.1504851921605510e-02  -3.7380740998805208e-02  -3.6408674669006859e-02  -3.3251415799530934e-02  -3.2316488343081637e-02  -2.9139204928712921e-02  -1.3912057283104792e-01  -1.0924689238622212e-01  -1.2440436673904541e-01  -2.8296961749503340e-02  -2.5058783314153846e-02  -2.5912832021105378e-02  -2.1679941474870314e-02  -2.0829981406861670e-02  -1.7452718185649863e-02  -2.2532693959883068e-02  2.5496522310256047e-02  2.7339878484269664e-02  2.6084770316848870e-02  2.7691319929785158e-02  2.6607642064959313e-02  2.7972090966532182e-02  -9.0737677545536119e-02  -4.6431135932480154e-02  -1.6137371698246344e-01  -1.6569810188113359e-02  -1.3260395746789892e-02  -1.0141309313898639e-01  2.3273992576299384e-02  2.7213745682429319e-02  1.4845591605662246e-02  2.7039395676442556e-02  2.8172898346428880e-02  2.9192449272847282e-02  2.9175016485561832e-02  2.8299804706059691e-02  2.9105529979252972e-02  2.8359404909931284e-02  2.8977506693696076e-02  2.8337221966533724e-02  2.8783736697369163e-02  2.8242857407398771e-02  2.8531825979580726e-02  2.8065284656614439e-02  2.8208844542219617e-02  2.7812169761496242e-02  2.7826514597190113e-02  2.7486189511634299e-02  2.7382978332030149e-02  2.7090850888992383e-02  2.6880213650911821e-02  2.6615310547284766e-02  2.6303431916760611e-02  2.6058786713443784e-02  2.5675243583138288e-02  2.5425975069236929e-02  2.4960671513814630e-02  2.4732841071303843e-02  2.4205805997416951e-02  2.3944887089814210e-02  2.3365417561014165e-02  2.3104569194717914e-02  2.2477995324136624e-02  2.8887131621722670e-02  -3.8388660571771323e-02  -7.2409819935019423e-02  -1.2254367564028191e-02  -8.9583956433441480e-03  -9.9549507017987517e-03  -5.5021751576245651e-03  -6.5429522674380642e-03  -1.9873053912295505e-03  -1.0658933457337047e-03  2.4682667156835317e-03  3.5101524623203204e-03  7.0163312421913310e-03  6.0718148401758707e-03  1.0607709598983594e-02  1.1410723615788560e-02  1.5108661945747217e-02  1.5898266967725699e-0