<?xml version="1.0"?>
<VTKFile type="UnstructuredGrid"  version="0.1"  >
<UnstructuredGrid>
<Piece  NumberOfPoints="2886" NumberOfCells="5412">
<Points>
<DataArray  type="Float64"  NumberOfComponents="3"  format="ascii">0 0.1 0  0.98 0.1 0  1 0.1 0  1 0 0  1.5 0 0  3 0 0  3 0.3 0  0 0.3 0  0.01975375321854102 0.1 0  0.03918897458218897 0.1 0  0.05831079002627837 0.1 0  0.07712425666319796 0.1 0  0.0956343475259058 0.1 0  0.1138459546796227 0.1 0  0.1317638870668193 0.1 0  0.1493928840275937 0.1 0  0.1667376092280033 0.1 0  0.1838026357802664 0.1 0  0.2005924801287244 0.1 0  0.2171115811543574 0.1 0  0.2333643037107681 0.1 0  0.2493549444060462 0.1 0  0.2650877293306821 0.1 0  0.2805668058011438 0.1 0  0.2957962848620976 0.1 0  0.3107801766802674 0.1 0  0.3255224447361181 0.1 0  0.3400269848175519 0.1 0  0.3542976327080778 0.1 0  0.3683381609158136 0.1 0  0.3821522744564845 0.1 0  0.3957436316838916 0.1 0  0.4091158196437086 0.1 0  0.4222723742184605 0.1 0  0.4352167733293057 0.1 0  0.4479524348643424 0.1 0  0.4604827295467524 0.1 0  0.4728109659990664 0.1 0  0.4849404035409129 0.1 0  0.4968742471455402 0.1 0  0.508615651843175 0.1 0  0.520167721130924 0.1 0  0.5315335063628542 0.1 0  0.5427160117228604 0.1 0  0.5537181940261912 0.1 0  0.564542961924507 0.1 0  0.575193173270606 0.1 0  0.5856716438765114 0.1 0  0.5959811458006617 0.1 0  0.6061243988680743 0.1 0  0.6161040893285659 0.1 0  0.6259228503970299 0.1 0  0.6355832809287655 0.1 0  0.6450879281079505 0.1 0  0.6544393102991295 0.1 0  0.663639896558931 0.1 0  0.6726921201956305 0.1 0  0.6815983691630338 0.1 0  0.6903610031396646 0.1 0  0.6989823343332418 0.1 0  0.7074646404270378 0.1 0  0.7158101645005117 0.1 0  0.7240211149852543 0.1 0  0.7320996585612525 0.1 0  0.7400479319727645 0.1 0  0.7478680336617921 0.1 0  0.755562036504958 0.1 0  0.7631319665092091 0.1 0  0.7705798279317605 0.1 0  0.777907588066146 0.1 0  0.7851171851013118 0.1 0  0.7922105226004981 0.1 0  0.7991894774550319 0.1 0  0.8060558928136696 0.1 0  0.812811583201334 0.1 0  0.8194583352091183 0.1 0  0.8259979035038147 0.1 0  0.8324320194413813 0.1 0  0.8387623808293405 0.1 0  0.8449906627004957 0.1 0  0.8511185094880469 0.1 0  0.8571475426008311 0.1 0  0.8630793533568246 0.1 0  0.8689155114558531 0.1 0  0.8746575581239063 0.1 0  0.8803070109173519 0.1 0  0.885865363938836 0.1 0  0.8913340851680313 0.1 0  0.8967146206523592 0.1 0  0.9020083930695622 0.1 0  0.9072167995950768 0.1 0  0.9123412183131177 0.1 0  0.9173830029719022 0.1 0  0.9223434865647732 0.1 0  0.9272239785872722 0.1 0  0.9320257720706087 0.1 0  0.9367501330378739 0.1 0  0.9413983102716995 0.1 0  0.9459715351562933 0.1 0  0.9504710127113115 0.1 0  0.9548979346500661 0.1 0  0.9592534708344373 0.1 0  0.9635387708980176 0.1 0  0.9677549682252325 0.1 0  0.971903177251235 0.1 0  0.9759844952956497 0.1 0  0.9840000000000086 0.1 0  0.987999999999974 0.1 0  0.9919999999999393 0.1 0  0.9959999999999913 0.1 0  1 0.09591793123533533 0  1 0.09133596463859224 0  1 0.08619288104391448 0  1 0.08041996484521211 0  1 0.07394008421771697 0  1 0.06666666567302955 0  1 0.05850252932209174 0  1 0.04933859630113544 0  1 0.03905242821848202 0  1 0.02750659386753798 0  1 0.01454683679239736 0  1.015625 0 0  1.03125 0 0  1.046875 0 0  1.0625 0 0  1.078125 0 0  1.09375 0 0  1.109375 0 0  1.125 0 0  1.140625 0 0  1.15625 0 0  1.171875 0 0  1.1875 0 0  1.203125 0 0  1.21875 0 0  1.234375 0 0  1.25 0 0  1.265625 0 0  1.28125 0 0  1.296875 0 0  1.3125 0 0  1.328125 0 0  1.34375 0 0  1.359375 0 0  1.375 0 0  1.390625 0 0  1.40625 0 0  1.421875 0 0  1.4375 0 0  1.453125 0 0  1.46875 0 0  1.484375 0 0  1.515920751924515 0 0  1.531989369316721 0 0  1.54820720925872 0 0  1.564575665560501 0 0  1.581096138674279 0 0  1.597770029901263 0 0  1.614598783332311 0 0  1.631583831055205 0 0  1.64872661129721 0 0  1.666028606716533 0 0  1.683491276608443 0 0  1.701116134125304 0 0  1.718904673324128 0 0  1.736858414799339 0 0  1.754978895814663 0 0  1.773267661782904 0 0  1.791726281103402 0 0  1.810356325314689 0 0  1.8291593848892 0 0  1.848137076690385 0 0  1.867291007717254 0 0  1.886622833871288 0 0  1.90613418642363 0 0  1.925826753299799 0 0  1.945702199101513 0 0  1.96576223584749 0 0  1.986008569283268 0 0  2.006442931928877 0 0  2.02706707547783 0 0  2.047882750887917 0 0  2.06889175187935 0 0  2.090095860038271 0 0  2.111496891648636 0 0  2.133096679109554 0 0  2.154897066851056 0 0  2.176899916687499 0 0  2.199107102752146 0 0  2.22152053937028 0 0  2.244142122958061 0 0  2.266973806444078 0 0  2.290017523268154 0 0  2.313275249499252 0 0  2.336748971745516 0 0  2.360440702338606 0 0  2.384352453384031 0 0  2.408486280477412 0 0  2.432844240041185 0 0  2.457428414757088 0 0  2.482240901796653 0 0  2.507283830121838 0 0  2.532559332080812 0 0  2.558069568787417 0 0  2.583816724966441 0 0  2.60980299606584 0 0  2.636030600971886 0 0  2.662501790984011 0 0  2.689218818279327 0 0  2.716183964547616 0 0  2.743399548861297 0 0  2.77086788244719 0 0  2.798591312896326 0 0  2.826572223178268 0 0  2.854812990138617 0 0  2.883316031690714 0 0  2.912083780657189 0 0  2.941118704633482 0 0  2.970423276998917 0 0  3 0.02999999999994495 0  3 0.05999999999987042 0  3 0.089999999999783 0  3 0.119999999999701 0  3 0.149999999999619 0  3 0.179999999999692 0  3 0.2099999999997737 0  3 0.2399999999998511 0  3 0.2699999999999185 0  2.970138294777171 0.3 0  2.940375666438236 0.3 0  2.910711782853056 0.3 0  2.881146331305122 0.3 0  2.851678975030285 0.3 0  2.822309388626621 0.3 0  2.793037250095074 0.3 0  2.76386223529133 0.3 0  2.734784017903872 0.3 0  2.705802289276642 0.3 0  2.676916713794697 0.3 0  2.648126987654635 0.3 0  2.619432780406184 0.3 0  2.590833779385199 0.3 0  2.562329669847737 0.3 0  2.533920134950189 0.3 0  2.505604855727852 0.3 0  2.477383539822502 0.3 0  2.449255847639465 0.3 0  2.421221492569094 0.3 0  2.393280152486815 0.3 0  2.36543151914496 0.3 0  2.337675285481809 0.3 0  2.310011142385583 0.3 0  2.282438797441587 0.3 0  2.254957931061538 0.3 0  2.227568248063605 0.3 0  2.200269436651085 0.3 0  2.173061204949961 0.3 0  2.145943251515011 0.3 0  2.118915272469994 0.3 0  2.091976978084957 0.3 0  2.065128060700849 0.3 0  2.038368218849433 0.3 0  2.01169717777258 0.3 0  1.985114624111908 0.3 0  1.958620267850966 0.3 0  1.93221382054972 0.3 0  1.905894991850698 0.3 0  1.879663489459713 0.3 0  1.853519019126419 0.3 0  1.827461291053897 0.3 0  1.801490031354372 0.3 0  1.775604937580312 0.3 0  1.74980572560258 0.3 0  1.724092118631866 0.3 0  1.698463829173586 0.3 0  1.672920575782554 0.3 0  1.647462076974085 0.3 0  1.622088043536933 0.3 0  1.5967981978949 0.3 0  1.571592267767068 0.3 0  1.546469970305736 0.3 0  1.521431023814044 0.3 0  1.496475156230927 0.3 0  1.471602093687753 0.3 0  1.446811560490646 0.3 0  1.422103279101731 0.3 0  1.397476971708191 0.3 0  1.37293238939876 0.3 0  1.348469231419202 0.3 0  1.324087248732772 0.3 0  1.299786165921677 0.3 0  1.275565710847046 0.3 0  1.251425617644257 0.3 0  1.227365618676339 0.3 0  1.203385446174014 0.3 0  1.179484853067473 0.3 0  1.155663548773374 0.3 0  1.131921292279077 0.3 0  1.108257802159295 0.3 0  1.084672829009693 0.3 0  1.061166115303374 0.3 0  1.037737392995421 0.3 0  1.01438640299116 0.3 0  0.991112899770314 0.3 0  0.9679166155523955 0.3 0  0.944797284182564 0.3 0  0.921754678526042 0.3 0  0.8987885143602501 0.3 0  0.8758985548820624 0.3 0  0.8530845484099929 0.3 0  0.8303462351786988 0.3 0  0.8076833651172373 0.3 0  0.7850956864865304 0.3 0  0.7625829601354557 0.3 0  0.7401449314598274 0.3 0  0.717781337993959 0.3 0  0.6954919649675473 0.3 0  0.6732765357561226 0.3 0  0.6511348120768439 0.3 0  0.6290665642016573 0.3 0  0.6070715355430467 0.3 0  0.5851494825775325 0.3 0  0.5633001690203812 0.3 0  0.5415233562273221 0.3 0  0.5198187909431873 0.3 0  0.4981862401387795 0.3 0  0.4766254686134248 0.3 0  0.4551362360485234 0.3 0  0.4337182975262159 0.3 0  0.4123714223228037 0.3 0  0.3910953802377493 0.3 0  0.3698899313205595 0.3 0  0.3487548463710963 0.3 0  0.3276898864081783 0.3 0  0.3066948129116018 0.3 0  0.2857694003037476 0.3 0  0.2649134227095047 0.3 0  0.2441266417321288 0.3 0  0.2234088223399122 0.3 0  0.2027597568977288 0.3 0  0.1821792020676698 0.3 0  0.1616669305402443 0.3 0  0.1412227158799362 0.3 0  0.12084633013886 0.3 0  0.1005375673448281 0.3 0  0.08029618164595353 0.3 0  0.06012194778526769 0.3 0  0.04001466495039718 0.3 0  0.01997408913631205 0.3 0  0 0.2800000000000553 0  0 0.2600000000001105 0  0 0.2400000000001658 0  0 0.2200000000002211 0  0 0.2000000000002764 0  0 0.1800000000002244 0  0 0.1600000000001691 0  0 0.140000000000115 0  0 0.1200000000000564 0  1.13346801534201 0.01255848438672509 0  1.003577645172735 0.09351054173913405 0  0.9777559943702486 0.1034978156913738 0  0.9524533750752109 0.1040889939962738 0  0.9296242411226409 0.1041520033606139 0  0.9046110503652111 0.104409422380137 0  0.8777709649694228 0.1053360318797398 0  0.8483859145648608 0.1061007868330701 0  0.8162363822948977 0.1052777104363292 0  0.7893110024210437 0.1060761643971561 0  0.7587949382612539 0.1067265405088633 0  0.7280603867732535 0.1069398153264939 0  0.6947001989413015 0.1075609887579097 0  0.6590363283767549 0.1076715322596598 0  0.6210028614493155 0.1072970410408442 0  1.1953125 0.01353164693413185 0  1.258193991486058 0.01269648635163345 0  1.3201967268638 0.01407907077719561 0  1.383538555392096 0.01434101079053473 0  1.445312500000001 0.01303671693628424 0  1.508925448095738 0.01398525724792267 0  0.9939176689634008 0.1034638089837981 0  1.120967497222226 0.2796788492172345 0  1.572835902117391 0.01424132418857359 0  1.637573277451887 0.01212536916586023 0  1.709730776795181 0.01466855431023635 0  1.005631976950563 0.07074019818158772 0  1.784944696816299 0.01454708406461822 0  0.5805605730631225 0.1101465090472147 0  1.855621181165637 0.01550931272897607 0  0.5366111276616774 0.1096761308243709 0  1.935200147913231 0.01760344159641829 0  1.214922267975168 0.2799787705802257 0  1.31178773425331 0.2792
[...]
<PointData  Scalars="pressure"> 
<DataArray  type="Float64"  Name="pressure"  format="ascii">1.5790881226667022e-01  -1.6555578237887128e-01  -2.1526628509180357e-01  -1.6112507791283356e-01  -4.0130886083417687e-02  0.0000000000000000e+00  0.0000000000000000e+00  1.5791612881353204e-01  1.5198269012707757e-01  1.4615205609720094e-01  1.4041534295668259e-01  1.3477102588549014e-01  1.2921759111551212e-01  1.2375355930673354e-01  1.1837749593176335e-01  1.1308792988201405e-01  1.0788346564159766e-01  1.0276271450725623e-01  9.7724270830638144e-02  9.2766784889659448e-02  8.7888942236904216e-02  8.3089379381589890e-02  7.8366798116288869e-02  7.3719984008478026e-02  6.9147539930110441e-02  6.4648273168875434e-02  6.0220941454833830e-02  5.5864243802744733e-02  5.1577016270008685e-02  4.7358129098706563e-02  4.3206231134214304e-02  3.9120242224032570e-02  3.5098873595231228e-02  3.1141027346200889e-02  2.7245658645908350e-02  2.3411496638045086e-02  1.9637360586881158e-02  1.5922202732702753e-02  1.2264891723218003e-02  8.6642331497080085e-03  5.1192344333777749e-03  1.6286589435847748e-03  -1.8085156524051227e-03  -5.1934675487144933e-03  -8.5272712684154300e-03  -1.1810609249466659e-02  -1.5045307840473768e-02  -1.8231982728702183e-02  -2.1371753401215703e-02  -2.4465904949791284e-02  -2.7515461068717273e-02  -3.0520867417366034e-02  -3.3484193470858598e-02  -3.6405925125332070e-02  -3.9287193749186107e-02  -4.2129144239347736e-02  -4.4932774814636089e-02  -4.7699144232312508e-02  -5.0429448112312612e-02  -5.3124628721041241e-02  -5.5785663494915566e-02  -5.8413516897780980e-02  -6.1009788293191126e-02  -6.3574863162569148e-02  -6.6110030485979090e-02  -6.8615952684487308e-02  -7.1094692205839818e-02  -7.3546672888604211e-02  -7.5972143285550589e-02  -7.8372876463371710e-02  -8.0750476348209255e-02  -8.3104632702316106e-02  -8.5437458808649502e-02  -8.7749686401544125e-02  -9.0041610745303258e-02  -9.2314853390585802e-02  -9.4570331969072996e-02  -9.6808996669952824e-02  -9.9032628352284796e-02  -1.0124133407710895e-01  -1.0343558581604109e-01  -1.0561608367656553e-01  -1.0778635112876801e-01  -1.0994547524748838e-01  -1.1209416859170350e-01  -1.1423436574956800e-01  -1.1636648989082686e-01  -1.1849153477699473e-01  -1.2061066104103743e-01  -1.2272581685462350e-01  -1.2483750197918612e-01  -1.2694598907074225e-01  -1.2905373927424979e-01  -1.3116171011005937e-01  -1.3327110367417308e-01  -1.3538338828338720e-01  -1.3749987901512847e-01  -1.3962233597322510e-01  -1.4175260181715110e-01  -1.4389275072253510e-01  -1.4604505548152649e-01  -1.4821112378668269e-01  -1.5039352859204158e-01  -1.5258327768585819e-01  -1.5496507971869580e-01  -1.5639421785487756e-01  -1.6022472223584405e-01  -1.5852337406755260e-01  -1.6335646903899612e-01  -1.6035768039331458e-01  -2.0287812371947256e-01  -1.8153112653925099e-01  -1.7496131708526197e-01  -1.7017536748558815e-01  -1.6694205264689055e-01  -1.6451461868103012e-01  -1.6269588514477645e-01  -1.6136304361496001e-01  -1.6056258107074772e-01  -1.6036640776904779e-01  -1.6077276624932682e-01  -1.6156613810363976e-01  -1.6194103570412813e-01  -1.6173488745103257e-01  -1.6106288845404082e-01  -1.6001555323367320e-01  -1.5863645896339093e-01  -1.5691040526296493e-01  -1.5482444640804696e-01  -1.5240758535294943e-01  -1.4967712342202621e-01  -1.4663695597115467e-01  -1.4330077976817382e-01  -1.3967966728194578e-01  -1.3578566485612636e-01  -1.3163922138698772e-01  -1.2725332051256083e-01  -1.2264044192829324e-01  -1.1781904146412256e-01  -1.1280814826087086e-01  -1.0761854486468828e-01  -1.0228037011500628e-01  -9.6812163528651574e-02  -9.1229999220740682e-02  -8.5564999254113080e-02  -7.9835726721287886e-02  -7.4072134996652883e-02  -6.8296693402628242e-02  -6.2532321981649736e-02  -5.6810982952359965e-02  -5.1153759297693786e-02  -4.5586847206112321e-02  -3.4710421544062307e-02  -2.9410789985156848e-02  -2.4241566844440295e-02  -1.9237044150764843e-02  -1.4424073146675645e-02  -9.8048858371997793e-03  -5.4060254737525598e-03  -1.2327075981807378e-03  2.6662305411190119e-03  6.3153967904030156e-03  9.7147667639392501e-03  1.2843432239575309e-02  1.5703991957384214e-02  1.8303901574981286e-02  2.0647527185729514e-02  2.2740332472108094e-02  2.4598165723435903e-02  2.6221976380383288e-02  2.7626412361698896e-02  2.8842427821475624e-02  2.9858863629625556e-02  3.0706153789607674e-02  3.1398115614957187e-02  3.1942940155727913e-02  3.2362227744588121e-02  3.2660507087940667e-02  3.2868739338917465e-02  3.2977723685856587e-02  3.3008286651918219e-02  3.2965299609002463e-02  3.2856492102784560e-02  3.2691146573852650e-02  3.2478326535632887e-02  3.2221979703259053e-02  3.1922765296686327e-02  3.1587620882646328e-02  3.1217102699783256e-02  3.0813727650372449e-02  3.0378405955103639e-02  2.9911382520291328e-02  2.9412861459592255e-02  2.8882600002803144e-02  2.8319225544585158e-02  2.7722876590393682e-02  2.7090950658726014e-02  2.6422028114745845e-02  2.5717080440734799e-02  2.4971253244948682e-02  2.4182531711492934e-02  2.3355203527329157e-02  2.2479732572485048e-02  2.1563129620545567e-02  2.0594942280671841e-02  1.9583950010617499e-02  1.8522417123952400e-02  1.7406543253570949e-02  1.6246827619314945e-02  1.5029128260385513e-02  1.3764778933780171e-02  1.2447729875462240e-02  1.1076984256456878e-02  9.6525567273432148e-03  8.1766239806448475e-03  6.6523328867277706e-03  5.0703099558374503e-03  3.4482774857403460e-03  1.7699374554592472e-03  0.0000000000000000e+00  0.0000000000000000e+00  0.0000000000000000e+00  0.0000000000000000e+00  0.0000000000000000e+00  0.0000000000000000e+00  0.0000000000000000e+00  0.0000000000000000e+00  0.0000000000000000e+00  1.9238260266792168e-03  3.7198005137496107e-03  5.4881941586489603e-03  7.2036242639909346e-03  8.8698575497232791e-03  1.0485643651131270e-02  1.2050072541108327e-02  1.3561432989183901e-02  1.5016875490752746e-02  1.6414206320620565e-02  1.7749427397403244e-02  1.9020070363519204e-02  2.0221074345129486e-02  2.1349448769137365e-02  2.2400351035198610e-02  2.3367230835974768e-02  2.4249668512775987e-02  2.5036561062164210e-02  2.5723241356327892e-02  2.6303553225397704e-02  2.6770645198529744e-02  2.7117837158627076e-02  2.7339484707684839e-02  2.7424875733064593e-02  2.7372170460055543e-02  2.7169869448915470e-02  2.6815648074905631e-02  2.6298170126680721e-02  2.5612327668577909e-02  2.4755439888427877e-02  2.3716848876364147e-02  2.2491079041129784e-02  2.1092961040593359e-02  1.9508179625631051e-02  1.7710907515652078e-02  1.5741452084989505e-02  1.3576175632089694e-02  1.1216374739564512e-02  8.6633154789362895e-03  5.9247599851562742e-03  2.9918327838341159e-03  -1.2174875527468993e-04  -3.4241753147487026e-03  -6.9048963160174143e-03  -1.0574912429816148e-02  -1.4418874337254330e-02  -1.8437641012044283e-02  -2.2622645457592145e-02  -2.6976703955015561e-02  -3.1486168524759973e-02  -3.6148371437246023e-02  -4.0951875872232188e-02  -4.5883624880979391e-02  -5.0934939286959621e-02  -5.6090147522455586e-02  -6.1326150241734045e-02  -6.6585209474860130e-02  -7.1911386340124617e-02  -7.7221886227129111e-02  -8.2458015961714981e-02  -8.7622976334620545e-02  -9.2646266518149528e-02  -9.7508613643505007e-02  -1.0210496653001354e-01  -1.0642917555880403e-01  -1.1037240736738500e-01  -1.1392282126066276e-01  -1.1697067983208545e-01  -1.1952004114261744e-01  -1.2143913861124771e-01  -1.2274283802706239e-01  -1.2335900418124568e-01  -1.2315841032062484e-01  -1.2231104299004981e-01  -1.2068021042215937e-01  -1.1827222525947068e-01  -1.1520319024498005e-01  -1.1149541511849814e-01  -1.0727478891367549e-01  -1.0261075623476508e-01  -9.7502939841431338e-02  -9.2089224787556295e-02  -8.6409405592310390e-02  -8.0557636051135237e-02  -7.4538508438572834e-02  -6.8380597708121785e-02  -6.2137240392446648e-02  -5.5821808233207239e-02  -4.9445640322321106e-02  -4.3032797067863393e-02  -3.6588506761988868e-02  -3.0131443433604931e-02  -2.3664600539747106e-02  -1.7190619701001535e-02  -1.0721149540670499e-02  -4.2574586828711290e-03  2.1992058271911087e-03  8.6453033366856776e-03  1.5077680918602157e-02  2.1495155682053384e-02  2.7897197506514010e-02  3.4282247748771880e-02  4.0650112463127143e-02  4.6999155538471012e-02  5.3329735008806362e-02  5.9641113565415779e-02  6.5933014321230263e-02  7.2205339032714214e-02  7.8457773894009791e-02  8.4690266889576316e-02  9.0902781713983902e-02  9.7095219711271566e-02  1.0326755319099312e-01  1.0941978153077664e-01  1.1555191533537520e-01  1.2166393206990124e-01  1.2775590265585496e-01  1.3382784715936041e-01  1.3987979402631184e-01  1.4591179750416591e-01  1.5192389206750381e-01  1.5791610054403754e-01  1.5791579642610046e-01  1.5791505372846096e-01  1.5791388789397326e-01  1.5791247179750567e-01  1.5791105423989338e-01  1.5790988596878963e-01  1.5790913832212611e-01  1.5790883529635999e-01  -1.5325224588142414e-01  -1.8597934577588501e-01  -1.5870966259337127e-01  -1.4500366696073491e-01  -1.3443089380849779e-01  -1.2386020834586237e-01  -1.1334305686328855e-01  -1.0251303723308205e-01  -9.1249062877567635e-02  -8.2172847258552367e-02  -7.2165414152495791e-02  -6.2310174654175175e-02  -5.1799869174396336e-02  -4.0716879407533137e-02  -2.9021171562981951e-02  -1.4134821409903855e-01  -1.2482253971374872e-01  -1.0509041252071884e-01  -8.2640436113157287e-02  -5.9944135368655553e-02  -3.7451511970970248e-02  -1.7140171507173904e-01  -1.2150508377966746e-01  -1.7221951548278977e-02  -2.2132560540303505e-04  1.3861062058667769e-02  -1.6641642702455306e-01  2.3600680385031495e-02  -1.6683169675875603e-02  2.8971989557083914e-02  -3.3489184560520770e-03  3.1931877710088395e-02  -1.1158357648494856e-01  -9.4444541389860234e-02  3.2872430427970785e-02  -7.4132957317273193e-02  1.0464782375422055e-02  -4.8008653247407225e-02  3.2499891352373057e-02  2.5327095775766962e-02  -1.5884074572712870e-01  3.1333389560417660e-02  -2.4571148690284352e-02  -1.2227216593476717e-01  4.0731029094128603e-02  2.9613351328549413e-02  -1.7188293531122320e-03  5.8229513655142798e-02  7.1561688199209593e-03  2.7343238756331475e-02  1.4755077376189901e-02  7.5520989500506563e-02  -1.1643926670370243e-01  2.4591826366456421e-02  2.0286531560371322e-02  -1.0483001996894807e-01  2.4240065105033272e-02  2.1060155201266306e-02  -8.9243063618175383e-02  9.5721407717233378e-02  1.0973860286642892e-01  -1.2390314519829956e-02  1.7934526143880948e-02  1.4223872131728677e-02  2.6483756213102467e-02  -7.1664343860991811e-02  2.7275930411695567e-02  -1.5146750603336517e-01  -4.6680320922375909e-02  2.6436860160601334e-02  1.2719045469663495e-01  -2.6936190778927480e-02  1.0336822324264729e-02  2.3741251965792156e-02  -7.3685269974463116e-03  1.8453557274121773e-02  2.0717155494118521e-02  5.0165089178618207e-02  1.7023435579567810e-02  6.9125471380989151e-02  8.7902522739446778e-02  1.2761965188943425e-02  1.1950225192798358e-01  1.6117081438303479e-03  1.5233252398348532e-01  -1.6156093625489668e-01  8.1332616943391150e-03  5.7394311165122830e-03  1.3730481512131595e-01  -1.7296402378711950e-01  -1.6090514615734111e-01  -1.1763769047839465e-01  -5.8886616573140427e-02  4.9285709235365278e-03  3.0757606216330273e-02  1.3764472028281668e-01  -3.8668676467922679e-02  -6.3238942764292011e-02  -8.4412739394902112e-02  -1.0360576536907755e-01  8.5783638555606778e-02  2.7170656840042936e-02  6.6610087076787214e-02  1.0014394796053716e-01  2.5292477190238794e-02  2.2911606124069315e-02  4.8907548755919968e-02  2.5962666524534890e-02  2.8559723393421495e-02  3.3369155848610860e-02  3.0538777786150755e-02  3.1998318109129106e-02  3.2816917813709108e-02  3.2629248330918362e-02  -2.7195148660356834e-02  1.7777985142974254e-02  3.0757400854919969e-02  2.6620881158508265e-02  3.3906439233283283e-03  1.9346012166092490e-02  7.6358156221400840e-03  -7.8483574634994092e-03  1.3436724206061853e-03  -1.0533210617826409e-02  -2.2471809035993332e-02  1.5267229250526382e-01  -3.4635815862676361e-02  -4.6327903182803096e-02  -5.7115749529498522e-02  -6.7476947112933894e-02  -7.7248730227790399e-02  -8.6520488032386739e-02  -1.4777254294834538e-01  -9.7966335227027759e-02  -1.0892059458175632e-01  -1.1962573809137127e-01  -1.3365008237250539e-01  -1.3027003750311247e-01  -9.4359129941719258e-02  -1.1485483003052793e-01  -7.2265343382565350e-02  -4.8685955942404192e-02  -1.4080478278048719e-01  -1.6077333606038050e-01  1.6905915471935168e-03  1.5217575171227588e-01  4.5328049289088323e-03  -1.6133673689982506e-01  1.5292419489588549e-01  1.3694955002680922e-03  1.4882011314344470e-01  -1.6130399468505346e-01  -1.6096500524387139e-01  -1.6050407245245410e-01  -1.6100605332957124e-01  -1.6052755215908776e-01  -1.6135791964375734e-01  -1.6069806323811919e-01  -1.6181291569888392e-01  -1.6098238910771653e-01  -1.6213465625466963e-01  -1.6118535096978467e-01  -1.6206041365512722e-01  -1.6091562599562548e-01  -1.6142712511844565e-01  -1.6014456981949318e-01  -1.6034023241852546e-01  -1.5888148770628607e-01  -1.5885972652012992e-01  -1.5723052018962447e-01  -1.5681733622230234e-01  -1.5488215606843139e-01  -1.5850404603649101e-01  -1.5539826499385817e-01  -1.5266077351050247e-01  -1.5578545222355736e-01  -1.5774908779513433e-01  -1.5294902629351126e-01  -1.5006769782094426e-01  -1.5027964140206651e-01  -1.4703204199768274e-01  -1.4712788306986876e-01  -1.4355891771353066e-01  -1.4357277574025887e-01  -1.3993052939690154e-01  -1.3961123096914813e-01  -1.3523812553232914e-01  -1.3502594015928443e-01  -1.3083108404276639e-01  -1.3019670337696704e-01  -1.2584166501617561e-01  -1.2496816846031145e-01  -1.2052637649986725e-01  -1.1942698828489287e-01  -1.1494711195187965e-01  -1.1358192170697044e-01  -1.0913434876517035e-01  -1.0746744309751297e-01  -1.0310411950585549e-01  -1.0114897437887239e-01  -9.6936488919768249e-02  -9.4641714563694315e-02  -9.0670118710479863e-02  -8.7916136720785673e-02  -1.5395201995086913e-01  -1.5574257692796750e-01  -8.4323053957836930e-02  -8.1143840284784677e-02  -7.7976097683678414e-02  -7.4801069488453664e-02  -7.1725970252249749e-02  -6.8199284433624704e-02  -6.5577811463127259e-02  -6.1724461393241288e-02  -1.4896021939269030e-01  -5.9644812651407253e-02  -5.5368479607077387e-02  -5.3636980831504207e-02  -4.9150025275649489e-02  -4.8031804656362476e-02  -4.3215429534687044e-02  -1.5114562427076966e-01  -1.5308797486707224e-01  -1.6256087716458129e-01  -4.2578969375237384e-02  -3.7481244691522829e-02  -3.7405432415880714e-02  -3.2034027552165431e-02  -3.2491933437976808e-02  -2.6904535866015593e-02  -1.5906071769414465e-01  -2.7856247435564852e-02  -2.2060561690117053e-02  -1.3922878269500516e-01  -2.3483712097395030e-02  -1.7548402186185655e-02  -1.9404993984499307e-02  -1.3359744209148868e-02  -1.5536844370121646e-02  -9.4846927284706426e-03  -1.5950953824619982e-01  -1.2574246919407758e-01  -1.2003856931130914e-02  -5.9234586034586784e-03  -1.4740126802811815e-01  -1.4862423164231126e-01  -1.4581333196136442e-01  -1.0981951010325702e-01  -8.6619052400802223e-03  -2.5149204643232503e-03  -5.6629456980568623e-03  5.4016525013162451e-04  -2.8139921026342314e-03  3.1810692251926205e-03  -3.8233727733881756e-02  3.3380787731449057e-04  -2.1364014671347336e-02  -5.7566738188016810e-02  -1.7571411191248052e-04  5.6002118771805911e-03  8.9579737573267024e-03  1.1217984380450026e-02  7.8628809714458240e-03  1.3254577630868389e-02  9.9968625630123525e-03  1.5154313432309070e-02  1.1921538679839248e-02  1.6805211937108176e-02  1.3683600137876511e-02  1.8327016755626865e-02  1.5342560838897715e-02  1.9662570892771250e-02  1.6779638549920258e-02  2.0883097232629495e-02  1.8217583504478139e-02  2.2097899579868869e-02  1.9500785307741186e-02  2.3093266947683950e-02  2.0710542561246194e-02  2.3957201744485235e-02  2.1676691112674736e-02  2.4744150085654410e-02  -7.7685415648677758e-02  -9.2743691723033289e-02  2.2666254975950983e-02  2.5407214009753237e-02  2.3604598373897435e-02  2.6038874808174146e-02  -1.4637746955597711e-01  -1.1141886569245323e-01  2.4439637351489820e-02  2.6559026086142721e-02  -1.2864713206128625e-01  -7.5368978099892847e-02  -1.4274638426245476e-01  -1.4354621873207857e-01  -1.5019161152845856e-01  -1.4398349700837412e-01  -1.4954450566717345e-01  -1.4369738119182915e-01  -1.4956582132655308e-01  -1.4286510310974379e-01  -1.4696838728986447e-01  -1.4101851109251132e-01  -1.4521986121591240e-01  -1.3876888381097138e-01  -1.4143530197096824e-01  -1.3585465972705851e-01  -1.3782316607329484e-01  -1.3274348955345111e-01  -1.3407557698477590e-01  -1.2935418499681053e-01  -1.3025884091254961e-01  -1.2587225222149054e-01  -1.2639669569239367e-01  -1.2228592405289472e-01  -1.2254507905226804e-01  -1.1866910224838172e-01  -1.1870076616716312e-01  -1.1507268647354048e-01  -1.1454694059730534e-01  -1.1119083746349596e-01  -1.1136063344423092e-01  -1.0775000340673785e-01  -1.0750202127798876e-01  -1.0413963650492848e-01  -1.0390680676980936e-01  -1.0057269778787789e-01  -1.0007814960494624e-01  -9.6943519096245809e-02  -1.3057408172062895e-01  -1.0745254038330103e-01  -1.2132743584918117e-01  -9.6382553856788608e-02  -9.3235874137693561e-02  -9.3559194820157981e-02  -9.0025061637889356e-02  -8.9487710934438830e-02  -8.6409711038638759e-02  -8.5694674894087899e-02  -8.2738633953021584e-02  -8.1917094418860734e-02  -7.9010066599459153e-02  -8.6211697264970050e-02  -1.5467875644643400e-01  -1.4683549589149927e-01  -7.8200638777551248e-02  -7.5224978495116099e-02  -7.5992773325323518e-02  -7.2213670165323263e-02  -7.1416125696756164e-02  -6.8453703189611997e-02  -6.7550711618812917e-02  -6.4668350032539137e-02  -1.3878042367008012e-01  -6.8989174881987803e-02  -6.3708717187813624e-02  -6.0897329886273992e-02  -1.3042633659367545e-01  -5.9980947638542371e-02  -5.7070561505542045e-02  -5.8260071478488544e-02  -5.4112453194616557e-02  -5.3134843497297815e-02  -5.0064959561081757e-02  -5.1001365864268448e-02  -4.6955815920448514e-02  -4.6035224932460032e-02  -4.2918994615066243e-02  -4.1990097572374561e-02  -3.8788948735974160e-02  -3.9743209562200267e-02  -3.5616374850681823e-02  -3.4632924097467023e-02  -3.1485149986150388e-02  -3.0540860152379692e-02  -2.7371813197718479e-02  -1.3858540127145336e-01  -1.0718731185364792e-01  -1.2219458651385016e-01  -2.6521778617554583e-02  -2.3290714743473339e-02  -2.4153119417336912e-02  -1.9918572811053345e-02  -1.9061691880440976e-02  -1.5690091397847696e-02  -2.0779817136125960e-02  2.5102307745050154e-02  2.6992394020793908e-02  2.5705548394675683e-02  2.7358425012950896e-02  2.6243508482679034e-02  2.7653088548589652e-02  -8.8803191488680405e-02  -4.7629555434554917e-02  -1.6238260874129379e-01  -1.4801562629694110e-02  -1.1497061810128188e-02  -9.9399707712451449e-02  2.2725873184561915e-02  2.6819647138833141e-02  1.4044327768625905e-02  2.6690221134624145e-02  2.7867260943697406e-02  2.8917775645996801e-02  2.8911994933462505e-02  2.8007076362493059e-02  2.8853964880030829e-02  2.8079657239096650e-02  2.8737158079963014e-02  2.8069962428673371e-02  2.8553745741933961e-02  2.7988046101649448e-02  2.8312272356914865e-02  2.7822483060636477e-02  2.7999345772604628e-02  2.7580895688989165e-02  2.7627009726445124e-02  2.7266527190577500e-02  2.7193281534518037e-02  2.6882772590288026e-02  2.6700402965092698e-02  2.6419002602671098e-02  2.6133270313020034e-02  2.5873671194385835e-02  2.5514734310559818e-02  2.5251539715691735e-02  2.4809472855050505e-02  2.4569256520598763e-02  2.4063957609134476e-02  2.3792705146625123e-02  2.3232855337739684e-02  2.2961260547741575e-02  2.2354258073277750e-02  2.8572313162207236e-02  -3.6637938641993328e-02  -7.0548653023858682e-02  -1.0486421065691474e-02  -7.1947072016495207e-03  -8.1962419083807560e-03  -3.7425060049317074e-03  -4.7883915515549123e-03  -2.3124123043705022e-04  6.9445148840776736e-04  4.2254302298065675e-03  5.2708766424786370e-03  8.7742919475778582e-03  7.8262480252860624e-03  1.2363233361867471e-02  1.3169186989076770e-02  1.6864992792054712e-02  1.7656976350290749e