<?xml version="1.0"?>
<VTKFile type="UnstructuredGrid"  version="0.1"  >
<UnstructuredGrid>
<Piece  NumberOfPoints="2886" NumberOfCells="5412">
<Points>
<DataArray  type="Float64"  NumberOfComponents="3"  format="ascii">0 0.1 0  0.98 0.1 0  1 0.1 0  1 0 0  1.5 0 0  3 0 0  3 0.3 0  0 0.3 0  0.01975375321854102 0.1 0  0.03918897458218897 0.1 0  0.05831079002627837 0.1 0  0.07712425666319796 0.1 0  0.0956343475259058 0.1 0  0.1138459546796227 0.1 0  0.1317638870668193 0.1 0  0.1493928840275937 0.1 0  0.1667376092280033 0.1 0  0.1838026357802664 0.1 0  0.2005924801287244 0.1 0  0.2171115811543574 0.1 0  0.2333643037107681 0.1 0  0.2493549444060462 0.1 0  0.2650877293306821 0.1 0  0.2805668058011438 0.1 0  0.2957962848620976 0.1 0  0.3107801766802674 0.1 0  0.3255224447361181 0.1 0  0.3400269848175519 0.1 0  0.3542976327080778 0.1 0  0.3683381609158136 0.1 0  0.3821522744564845 0.1 0  0.3957436316838916 0.1 0  0.4091158196437086 0.1 0  0.4222723742184605 0.1 0  0.4352167733293057 0.1 0  0.4479524348643424 0.1 0  0.4604827295467524 0.1 0  0.4728109659990664 0.1 0  0.4849404035409129 0.1 0  0.4968742471455402 0.1 0  0.508615651843175 0.1 0  0.520167721130924 0.1 0  0.5315335063628542 0.1 0  0.5427160117228604 0.1 0  0.5537181940261912 0.1 0  0.564542961924507 0.1 0  0.575193173270606 0.1 0  0.5856716438765114 0.1 0  0.5959811458006617 0.1 0  0.6061243988680743 0.1 0  0.6161040893285659 0.1 0  0.6259228503970299 0.1 0  0.6355832809287655 0.1 0  0.6450879281079505 0.1 0  0.6544393102991295 0.1 0  0.663639896558931 0.1 0  0.6726921201956305 0.1 0  0.6815983691630338 0.1 0  0.6903610031396646 0.1 0  0.6989823343332418 0.1 0  0.7074646404270378 0.1 0  0.7158101645005117 0.1 0  0.7240211149852543 0.1 0  0.7320996585612525 0.1 0  0.7400479319727645 0.1 0  0.7478680336617921 0.1 0  0.755562036504958 0.1 0  0.7631319665092091 0.1 0  0.7705798279317605 0.1 0  0.777907588066146 0.1 0  0.7851171851013118 0.1 0  0.7922105226004981 0.1 0  0.7991894774550319 0.1 0  0.8060558928136696 0.1 0  0.812811583201334 0.1 0  0.8194583352091183 0.1 0  0.8259979035038147 0.1 0  0.8324320194413813 0.1 0  0.8387623808293405 0.1 0  0.8449906627004957 0.1 0  0.8511185094880469 0.1 0  0.8571475426008311 0.1 0  0.8630793533568246 0.1 0  0.8689155114558531 0.1 0  0.8746575581239063 0.1 0  0.8803070109173519 0.1 0  0.885865363938836 0.1 0  0.8913340851680313 0.1 0  0.8967146206523592 0.1 0  0.9020083930695622 0.1 0  0.9072167995950768 0.1 0  0.9123412183131177 0.1 0  0.9173830029719022 0.1 0  0.9223434865647732 0.1 0  0.9272239785872722 0.1 0  0.9320257720706087 0.1 0  0.9367501330378739 0.1 0  0.9413983102716995 0.1 0  0.9459715351562933 0.1 0  0.9504710127113115 0.1 0  0.9548979346500661 0.1 0  0.9592534708344373 0.1 0  0.9635387708980176 0.1 0  0.9677549682252325 0.1 0  0.971903177251235 0.1 0  0.9759844952956497 0.1 0  0.9840000000000086 0.1 0  0.987999999999974 0.1 0  0.9919999999999393 0.1 0  0.9959999999999913 0.1 0  1 0.09591793123533533 0  1 0.09133596463859224 0  1 0.08619288104391448 0  1 0.08041996484521211 0  1 0.07394008421771697 0  1 0.06666666567302955 0  1 0.05850252932209174 0  1 0.04933859630113544 0  1 0.03905242821848202 0  1 0.02750659386753798 0  1 0.01454683679239736 0  1.015625 0 0  1.03125 0 0  1.046875 0 0  1.0625 0 0  1.078125 0 0  1.09375 0 0  1.109375 0 0  1.125 0 0  1.140625 0 0  1.15625 0 0  1.171875 0 0  1.1875 0 0  1.203125 0 0  1.21875 0 0  1.234375 0 0  1.25 0 0  1.265625 0 0  1.28125 0 0  1.296875 0 0  1.3125 0 0  1.328125 0 0  1.34375 0 0  1.359375 0 0  1.375 0 0  1.390625 0 0  1.40625 0 0  1.421875 0 0  1.4375 0 0  1.453125 0 0  1.46875 0 0  1.484375 0 0  1.515920751924515 0 0  1.531989369316721 0 0  1.54820720925872 0 0  1.564575665560501 0 0  1.581096138674279 0 0  1.597770029901263 0 0  1.614598783332311 0 0  1.631583831055205 0 0  1.64872661129721 0 0  1.666028606716533 0 0  1.683491276608443 0 0  1.701116134125304 0 0  1.718904673324128 0 0  1.736858414799339 0 0  1.754978895814663 0 0  1.773267661782904 0 0  1.791726281103402 0 0  1.810356325314689 0 0  1.8291593848892 0 0  1.848137076690385 0 0  1.867291007717254 0 0  1.886622833871288 0 0  1.90613418642363 0 0  1.925826753299799 0 0  1.945702199101513 0 0  1.96576223584749 0 0  1.986008569283268 0 0  2.006442931928877 0 0  2.02706707547783 0 0  2.047882750887917 0 0  2.06889175187935 0 0  2.090095860038271 0 0  2.111496891648636 0 0  2.133096679109554 0 0  2.154897066851056 0 0  2.176899916687499 0 0  2.199107102752146 0 0  2.22152053937028 0 0  2.244142122958061 0 0  2.266973806444078 0 0  2.290017523268154 0 0  2.313275249499252 0 0  2.336748971745516 0 0  2.360440702338606 0 0  2.384352453384031 0 0  2.408486280477412 0 0  2.432844240041185 0 0  2.457428414757088 0 0  2.482240901796653 0 0  2.507283830121838 0 0  2.532559332080812 0 0  2.558069568787417 0 0  2.583816724966441 0 0  2.60980299606584 0 0  2.636030600971886 0 0  2.662501790984011 0 0  2.689218818279327 0 0  2.716183964547616 0 0  2.743399548861297 0 0  2.77086788244719 0 0  2.798591312896326 0 0  2.826572223178268 0 0  2.854812990138617 0 0  2.883316031690714 0 0  2.912083780657189 0 0  2.941118704633482 0 0  2.970423276998917 0 0  3 0.02999999999994495 0  3 0.05999999999987042 0  3 0.089999999999783 0  3 0.119999999999701 0  3 0.149999999999619 0  3 0.179999999999692 0  3 0.2099999999997737 0  3 0.2399999999998511 0  3 0.2699999999999185 0  2.970138294777171 0.3 0  2.940375666438236 0.3 0  2.910711782853056 0.3 0  2.881146331305122 0.3 0  2.851678975030285 0.3 0  2.822309388626621 0.3 0  2.793037250095074 0.3 0  2.76386223529133 0.3 0  2.734784017903872 0.3 0  2.705802289276642 0.3 0  2.676916713794697 0.3 0  2.648126987654635 0.3 0  2.619432780406184 0.3 0  2.590833779385199 0.3 0  2.562329669847737 0.3 0  2.533920134950189 0.3 0  2.505604855727852 0.3 0  2.477383539822502 0.3 0  2.449255847639465 0.3 0  2.421221492569094 0.3 0  2.393280152486815 0.3 0  2.36543151914496 0.3 0  2.337675285481809 0.3 0  2.310011142385583 0.3 0  2.282438797441587 0.3 0  2.254957931061538 0.3 0  2.227568248063605 0.3 0  2.200269436651085 0.3 0  2.173061204949961 0.3 0  2.145943251515011 0.3 0  2.118915272469994 0.3 0  2.091976978084957 0.3 0  2.065128060700849 0.3 0  2.038368218849433 0.3 0  2.01169717777258 0.3 0  1.985114624111908 0.3 0  1.958620267850966 0.3 0  1.93221382054972 0.3 0  1.905894991850698 0.3 0  1.879663489459713 0.3 0  1.853519019126419 0.3 0  1.827461291053897 0.3 0  1.801490031354372 0.3 0  1.775604937580312 0.3 0  1.74980572560258 0.3 0  1.724092118631866 0.3 0  1.698463829173586 0.3 0  1.672920575782554 0.3 0  1.647462076974085 0.3 0  1.622088043536933 0.3 0  1.5967981978949 0.3 0  1.571592267767068 0.3 0  1.546469970305736 0.3 0  1.521431023814044 0.3 0  1.496475156230927 0.3 0  1.471602093687753 0.3 0  1.446811560490646 0.3 0  1.422103279101731 0.3 0  1.397476971708191 0.3 0  1.37293238939876 0.3 0  1.348469231419202 0.3 0  1.324087248732772 0.3 0  1.299786165921677 0.3 0  1.275565710847046 0.3 0  1.251425617644257 0.3 0  1.227365618676339 0.3 0  1.203385446174014 0.3 0  1.179484853067473 0.3 0  1.155663548773374 0.3 0  1.131921292279077 0.3 0  1.108257802159295 0.3 0  1.084672829009693 0.3 0  1.061166115303374 0.3 0  1.037737392995421 0.3 0  1.01438640299116 0.3 0  0.991112899770314 0.3 0  0.9679166155523955 0.3 0  0.944797284182564 0.3 0  0.921754678526042 0.3 0  0.8987885143602501 0.3 0  0.8758985548820624 0.3 0  0.8530845484099929 0.3 0  0.8303462351786988 0.3 0  0.8076833651172373 0.3 0  0.7850956864865304 0.3 0  0.7625829601354557 0.3 0  0.7401449314598274 0.3 0  0.717781337993959 0.3 0  0.6954919649675473 0.3 0  0.6732765357561226 0.3 0  0.6511348120768439 0.3 0  0.6290665642016573 0.3 0  0.6070715355430467 0.3 0  0.5851494825775325 0.3 0  0.5633001690203812 0.3 0  0.5415233562273221 0.3 0  0.5198187909431873 0.3 0  0.4981862401387795 0.3 0  0.4766254686134248 0.3 0  0.4551362360485234 0.3 0  0.4337182975262159 0.3 0  0.4123714223228037 0.3 0  0.3910953802377493 0.3 0  0.3698899313205595 0.3 0  0.3487548463710963 0.3 0  0.3276898864081783 0.3 0  0.3066948129116018 0.3 0  0.2857694003037476 0.3 0  0.2649134227095047 0.3 0  0.2441266417321288 0.3 0  0.2234088223399122 0.3 0  0.2027597568977288 0.3 0  0.1821792020676698 0.3 0  0.1616669305402443 0.3 0  0.1412227158799362 0.3 0  0.12084633013886 0.3 0  0.1005375673448281 0.3 0  0.08029618164595353 0.3 0  0.06012194778526769 0.3 0  0.04001466495039718 0.3 0  0.01997408913631205 0.3 0  0 0.2800000000000553 0  0 0.2600000000001105 0  0 0.2400000000001658 0  0 0.2200000000002211 0  0 0.2000000000002764 0  0 0.1800000000002244 0  0 0.1600000000001691 0  0 0.140000000000115 0  0 0.1200000000000564 0  1.13346801534201 0.01255848438672509 0  1.003577645172735 0.09351054173913405 0  0.9777559943702486 0.1034978156913738 0  0.9524533750752109 0.1040889939962738 0  0.9296242411226409 0.1041520033606139 0  0.9046110503652111 0.104409422380137 0  0.8777709649694228 0.1053360318797398 0  0.8483859145648608 0.1061007868330701 0  0.8162363822948977 0.1052777104363292 0  0.7893110024210437 0.1060761643971561 0  0.7587949382612539 0.1067265405088633 0  0.7280603867732535 0.1069398153264939 0  0.6947001989413015 0.1075609887579097 0  0.6590363283767549 0.1076715322596598 0  0.6210028614493155 0.1072970410408442 0  1.1953125 0.01353164693413185 0  1.258193991486058 0.01269648635163345 0  1.3201967268638 0.01407907077719561 0  1.383538555392096 0.01434101079053473 0  1.445312500000001 0.01303671693628424 0  1.508925448095738 0.01398525724792267 0  0.9939176689634008 0.1034638089837981 0  1.120967497222226 0.2796788492172345 0  1.572835902117391 0.01424132418857359 0  1.637573277451887 0.01212536916586023 0  1.709730776795181 0.01466855431023635 0  1.005631976950563 0.07074019818158772 0  1.784944696816299 0.01454708406461822 0  0.5805605730631225 0.1101465090472147 0  1.855621181165637 0.01550931272897607 0  0.5366111276616774 0.1096761308243709 0  1.935200147913231 0.01760344159641829 0  1.214922267975168 0.2799787705802257 0  1.31178773425331 0.2792
[...]
<PointData  Scalars="pressure"> 
<DataArray  type="Float64"  Name="pressure"  format="ascii">1.5432571074046431e-01  -1.6639023284419996e-01  -2.1109423987464404e-01  -1.5896429612510776e-01  -3.7520628474907051e-02  0.0000000000000000e+00  0.0000000000000000e+00  1.5433380689145901e-01  1.4839958899623143e-01  1.4256894768500003e-01  1.3683221641977064e-01  1.3118786951222547e-01  1.2563439085135494e-01  1.2017029976202263e-01  1.1479416261776702e-01  1.0950450293079732e-01  1.0429992555451111e-01  9.9179039991845325e-02  9.4140434940326631e-02  8.9182758776206086e-02  8.4304696485277220e-02  7.9504876372425856e-02  7.4781996830900865e-02  7.0134846820143537e-02  6.5562011121844288e-02  6.1062298162285630e-02  5.6634459781211545e-02  5.2277180441941393e-02  4.7989294516011909e-02  4.3769672862045625e-02  3.9616937501450490e-02  3.5530010357891113e-02  3.1507579154371218e-02  2.7548541294052018e-02  2.3651852649523627e-02  1.9816214447120270e-02  1.6040427380239572e-02  1.2323437464210690e-02  8.6640962311536618e-03  5.0611834180523787e-03  1.5137008721593981e-03  -1.9796217017579209e-03  -5.4198185864803771e-03  -8.8080993439304065e-03  -1.2145560200524307e-02  -1.5432860531983722e-02  -1.8671936326171465e-02  -2.1863379318007924e-02  -2.5008337952992399e-02  -2.8108153604827560e-02  -3.1163874423525459e-02  -3.4175904423855569e-02  -3.7146462255912088e-02  -4.0076001754005934e-02  -4.2965696986045805e-02  -4.5816738977971880e-02  -4.8630158061569541e-02  -5.1407052123216834e-02  -5.4148672717627973e-02  -5.6855992847986488e-02  -5.9530024425803650e-02  -6.2171766650362767e-02  -6.4782927947220292e-02  -6.7363866603096526e-02  -6.9915948632750455e-02  -7.2439844286654398e-02  -7.4937781407919998e-02  -7.7410174644963275e-02  -7.9857232209750828e-02  -8.2280870866530353e-02  -8.4682820560576605e-02  -8.7062678076675531e-02  -8.9422745788240346e-02  -9.1763790439155918e-02  -9.4086087287725065e-02  -9.6391403456199246e-02  -9.8680718024755559e-02  -1.0095505402777030e-01  -1.0321637062412256e-01  -1.0546475283849137e-01  -1.0770069447147605e-01  -1.0992495673026595e-01  -1.1214149256244491e-01  -1.1434925221430062e-01  -1.1654903511042328e-01  -1.1874302669491960e-01  -1.2093172112403704e-01  -1.2311626602788650e-01  -1.2529802261510067e-01  -1.2747926945021196e-01  -1.2966062920564392e-01  -1.3184252810564900e-01  -1.3402791960295254e-01  -1.3621806888274612e-01  -1.3841456396260526e-01  -1.4061938968103027e-01  -1.4283439933829098e-01  -1.4506206206853883e-01  -1.4730508234924866e-01  -1.4956661466186483e-01  -1.5185056850474790e-01  -1.5415928590967315e-01  -1.5650144739250987e-01  -1.5888109699040157e-01  -1.6130741030430265e-01  -1.6377962251244155e-01  -1.6896151075313204e-01  -1.7160888100787269e-01  -1.7558405314358683e-01  -1.7051969696628463e-01  -2.0004454645498423e-01  -1.7927935788738933e-01  -1.7278329297046335e-01  -1.6802647681144439e-01  -1.6480135622568104e-01  -1.6237560838216555e-01  -1.6055495971896036e-01  -1.5921726776728878e-01  -1.5841080242293887e-01  -1.5820870569502310e-01  -1.5861174612163750e-01  -1.5940563725263152e-01  -1.5977750556639522e-01  -1.5956605741502297e-01  -1.5888630211804020e-01  -1.5782830488324670e-01  -1.5643526241689013e-01  -1.5469153488129209e-01  -1.5258390503495073e-01  -1.5014156654259878e-01  -1.4738207714366303e-01  -1.4430954130987350e-01  -1.4093807803278896e-01  -1.3727928565098543e-01  -1.3334573534994473e-01  -1.2915857629327746e-01  -1.2473153611048203e-01  -1.2007783677846968e-01  -1.1521674743704560e-01  -1.1016813008107902e-01  -1.0494384637020705e-01  -9.9574491763546727e-02  -9.4079772336172332e-02  -8.8476503416973648e-02  -8.2796517629914093e-02  -7.7058869662818719e-02  -7.1294441433239805e-02  -6.5526071209204645e-02  -5.9776897487684867e-02  -5.4079162723485667e-02  -4.8454088356014266e-02  -4.2927801713801325e-02  -3.2158038636615524e-02  -2.6924422242409669e-02  -2.1829330574634129e-02  -1.6906211868383370e-02  -1.2180733586435974e-02  -7.6556110800011365e-03  -3.3548234353080603e-03  7.1693295127171449e-04  4.5113704575998666e-03  8.0541786107763066e-03  1.1347145390886750e-02  1.4370127830275414e-02  1.7126516418423478e-02  1.9624874275596484e-02  2.1870401809668736e-02  2.3869162900303807e-02  2.5637657125866343e-02  2.7177531755574226e-02  2.8503289843072856e-02  2.9646357769997765e-02  3.0595778166433482e-02  3.1381796352994658e-02  3.2018185861045961e-02  3.2512911287287435e-02  3.2887361701619787e-02  3.3145761209440391e-02  3.3318387113625433e-02  3.3396149239208930e-02  3.3399198750966974e-02  3.3332139287253419e-02  3.3202362176040022e-02  3.3018681421671893e-02  3.2789710925755104e-02  3.2519070057790520e-02  3.2207259377192640e-02  3.1860781429347472e-02  3.1480019513379670e-02  3.1067208833007540e-02  3.0623081683481629e-02  3.0147725344876340e-02  2.9641185073111285e-02  2.9103089025041443e-02  2.8532006891749707e-02  2.7927914631373962e-02  2.7288245403372571e-02  2.6611528333268682e-02  2.5898555916151540e-02  2.5144591433733390e-02  2.4347763941856976e-02  2.3511934996766432e-02  2.2628113930149390e-02  2.1702735569896721e-02  2.0726069902562098e-02  1.9706128198562382e-02  1.8635742129387102e-02  1.7511164283655952e-02  1.6342382318100826e-02  1.5116096311322921e-02  1.3842795547298501e-02  1.2516914351744270e-02  1.1137354516244270e-02  9.7044800115601779e-03  8.2202312670255438e-03  6.6874319251436134e-03  5.0965939427726334e-03  3.4660378864696788e-03  1.7796382865973184e-03  0.0000000000000000e+00  0.0000000000000000e+00  0.0000000000000000e+00  0.0000000000000000e+00  0.0000000000000000e+00  0.0000000000000000e+00  0.0000000000000000e+00  0.0000000000000000e+00  0.0000000000000000e+00  1.9254991144473789e-03  3.7247063961128412e-03  5.4984961391029014e-03  7.2196878521400805e-03  8.8922188836931329e-03  1.0514968836651789e-02  1.2087153885478300e-02  1.3607101881605414e-02  1.5071947326408755e-02  1.6479623261136764e-02  1.7826168778342217e-02  1.9109251638613770e-02  2.0323868204463618e-02  2.1467131313395737e-02  2.2534276504910251e-02  2.3518982935649246e-02  2.4420855597308319e-02  2.5228922709796181e-02  2.5938614648343534e-02  2.6543891285289768e-02  2.7038020900426309e-02  2.7414318470020699e-02  2.7667278553899000e-02  2.7786316287109737e-02  2.7769276282672752e-02  2.7604941281197459e-02  2.7290861308061309e-02  2.6815539812428887e-02  2.6173816954849889e-02  2.5362876712061371e-02  2.4371964977926715e-02  2.3195472249292391e-02  2.1848024284043269e-02  2.0314568915235059e-02  1.8569878950851725e-02  1.6653890111281523e-02  1.4542200884969625e-02  1.2236490815733553e-02  9.7374429033836168e-03  7.0532166416230318e-03  4.1741273919886591e-03  1.1140809212228202e-03  -2.1350013332680808e-03  -5.5628550736935480e-03  -9.1802193718743350e-03  -1.2972490568626991e-02  -1.6940215556901363e-02  -2.1075722246963344e-02  -2.5381078457411041e-02  -2.9843521991883181e-02  -3.4460839580494618e-02  -3.9222002652196025e-02  -4.4115002606550283e-02  -4.9131620455313364e-02  -5.4256713003666357e-02  -5.9468880927311625e-02  -6.4714219757973715e-02  -7.0032489409225518e-02  -7.5346226983858788e-02  -8.0600306110365755e-02  -8.5796900176688576e-02  -9.0868807735968296e-02  -9.5798682721109460e-02  -1.0048449367038081e-01  -1.0492209414640764e-01  -1.0900604745476594e-01  -1.1272523870922398e-01  -1.1597371779372402e-01  -1.1875509103515082e-01  -1.2093927351841238e-01  -1.2253924544762992e-01  -1.2347930455509240e-01  -1.2362312221673644e-01  -1.2313449794048080e-01  -1.2186089820986798e-01  -1.1979742092901048e-01  -1.1705016639498399e-01  -1.1363095864382078e-01  -1.0966509701572445e-01  -1.0522090127177605e-01  -1.0029328346264284e-01  -9.5029390650713308e-02  -8.9470934741547381e-02  -8.3720950200216637e-02  -7.7783843789236931e-02  -7.1690876791392869e-02  -6.5500911168241319e-02  -5.9228650258147608e-02  -5.2886615386362447e-02  -4.6501468560063701e-02  -4.0078992070530152e-02  -3.3639922192219229e-02  -2.7187574690037398e-02  -2.0724888217285811e-02  -1.4264807521506882e-02  -7.8087435292574971e-03  -1.3580905907870325e-03  5.0832128467316138e-03  1.1511655122211820e-02  1.7925918133876208e-02  2.4325403344489661e-02  3.0708373099148947e-02  3.7074603414493416e-02  4.3422271175033812e-02  4.9751765231536502e-02  5.6062259959324443e-02  6.2353439543598940e-02  6.8625187865635970e-02  7.4877148938895369e-02  8.1109257472691487e-02  8.7321465255471103e-02  9.3513656013653412e-02  9.9685791083306399e-02  1.0583786226138681e-01  1.1196987390755679e-01  1.1808179357817732e-01  1.2417369319090062e-01  1.3024558691607585e-01  1.3629749897535620e-01  1.4232948293645939e-01  1.4834156908793608e-01  1.5433377559846134e-01  1.5433343903420843e-01  1.5433261717665775e-01  1.5433132713895442e-01  1.5432976020731631e-01  1.5432819165903591e-01  1.5432689892512058e-01  1.5432607159059669e-01  1.5432573623396098e-01  -1.5099854375793359e-01  -1.8348445349742148e-01  -1.6523264701107260e-01  -1.5076711051878278e-01  -1.3963729701258942e-01  -1.2865930817990437e-01  -1.1783624151166693e-01  -1.0676616573089884e-01  -9.5314214551611876e-02  -8.6123829870332069e-02  -7.6019844229349945e-02  -6.6093219317225574e-02  -5.5526733196984875e-02  -4.4400988780479968e-02  -3.2673570614086288e-02  -1.3896975237994502e-01  -1.2228443198627691e-01  -1.0240759201780641e-01  -7.9875507395842968e-02  -5.7207148125625155e-02  -3.4878804686193997e-02  -1.7863354595974970e-01  -1.2112721200085215e-01  -1.4937440817445880e-02  1.6917522500906083e-03  1.5340022409518456e-02  -1.6425906328538414e-01  2.4677282666418558e-02  -2.0312842185395748e-02  2.9754572120099188e-02  -6.9621011246802185e-03  3.2485234137945573e-02  -1.1030471764637308e-01  -9.2709747545161564e-02  3.3275452216485181e-02  -7.2266342688810464e-02  6.8626327152539138e-03  -4.6234240701999836e-02  3.2822405689600369e-02  2.1732392553361578e-02  -1.5664550495400820e-01  3.1602687269523394e-02  -2.3009149180980237e-02  -1.2292107018208615e-01  3.7141073385642397e-02  2.9846049618353722e-02  -4.6197740832330325e-04  5.4642714321702465e-02  8.2561666499269461e-03  2.7543773861137232e-02  1.5688141971156214e-02  7.1935951246359736e-02  -1.1810491251404200e-01  2.4760924627223603e-02  2.1064303867038430e-02  -1.0731647989306331e-01  2.4867193185434379e-02  2.1194729585875070e-02  -9.2237063756993198e-02  9.2137476986696540e-02  1.0615509236026784e-01  -1.0976628462855662e-02  1.8042534257493015e-02  1.4304327512429783e-02  2.6979002513546162e-02  -7.4936631312473467e-02  2.7619689304079421e-02  -1.5767306283170365e-01  -5.0131536854658161e-02  2.6692407759106047e-02  1.2360722704721493e-01  -3.0451031330002348e-02  1.0392007666330087e-02  2.3905212093887053e-02  -1.0915747014670279e-02  1.4885999742940055e-02  2.0829493880619838e-02  4.6587729692290726e-02  1.7096527995499430e-02  6.5545630670762509e-02  8.4321374208233116e-02  1.2805280838562779e-02  1.1592015475032250e-01  1.6177613704115852e-03  1.4874988218453641e-01  -1.5940806078376460e-01  8.1547416199220131e-03  5.7683228513773681e-03  1.3372253801242320e-01  -1.7075454642436552e-01  -1.5873261521976972e-01  -1.1674912045667275e-01  -6.2270328449445266e-02  1.3694796082287931e-03  2.7185030514837234e-02  1.3406157556251155e-01  -3.6966591545713322e-02  -6.1386838713868588e-02  -8.2579463348851440e-02  -1.0204625945362489e-01  8.2199258326291477e-02  2.7587858169324922e-02  6.3024265090145373e-02  9.6562299500548621e-02  2.5498449152202899e-02  2.3063600792969274e-02  4.5319291152720674e-02  2.6146806720265349e-02  2.8776344231719445e-02  2.9777217220522630e-02  3.0788635136828214e-02  3.2291149892001908e-02  3.3178802812416953e-02  3.3095975557294571e-02  -2.4749712135086234e-02  1.4179942780687018e-02  3.1414763455008661e-02  2.7541511188400817e-02  -2.1657321960544897e-04  2.0612838991639008e-02  9.3231754363200352e-03  -5.7527671249711018e-03  1.3487686828591260e-03  -1.4154376354780862e-02  -2.6111026863584182e-02  1.4908935975965890e-01  -3.8302145368460536e-02  -5.0031859021472357e-02  -6.0868837459014939e-02  -7.1295041579655952e-02  -8.1148870479234025e-02  -9.0522795572092959e-02  -1.4546112473967798e-01  -1.0213655059184734e-01  -1.1330678493315037e-01  -1.2429160919308058e-01  -1.3119399576983262e-01  -1.3530143341108325e-01  -9.1624456290649664e-02  -1.1223604573153144e-01  -6.9498040971325725e-02  -4.6012656082748842e-02  -1.4632277695265447e-01  -1.7093072964306250e-01  1.6953275569460123e-03  1.4859335667696019e-01  4.5424507587871763e-03  -1.5917427168014073e-01  1.4934110713694734e-01  1.3756753769596163e-03  1.4523779527240113e-01  -1.5913761645074870e-01  -1.5879692505614149e-01  -1.5833003630185341e-01  -1.5883709213710356e-01  -1.5835285287064158e-01  -1.5918749940482163e-01  -1.5852126056864491e-01  -1.5963890544308382e-01  -1.5880192254688330e-01  -1.5995439092544053e-01  -1.5899854313128403e-01  -1.5987200936587601e-01  -1.5871975324481616e-01  -1.5923209987834924e-01  -1.5794014255208014e-01  -1.5814879924677230e-01  -1.5667715627090270e-01  -1.5669280120347523e-01  -1.5504786408303961e-01  -1.5472161790645997e-01  -1.5275113503723781e-01  -1.5644872256226430e-01  -1.5318418151273056e-01  -1.5049496761963194e-01  -1.5386704066741999e-01  -1.5591193167961842e-01  -1.5071349349731153e-01  -1.4786801705727626e-01  -1.4801236530485037e-01  -1.4479780193451355e-01  -1.4482679192060854e-01  -1.4129273415413091e-01  -1.4123519294228501e-01  -1.3762113632140308e-01  -1.3723332810925390e-01  -1.3289788893086296e-01  -1.3260797057660850e-01  -1.2844280886379664e-01  -1.2773716800324136e-01  -1.2341488486395684e-01  -1.2246765344958341e-01  -1.1806491995800483e-01  -1.1688846609121485e-01  -1.1245531585095325e-01  -1.1100990831405096e-01  -1.0661714353084255e-01  -1.0486765148846511e-01  -1.0057078201173801e-01  -9.8529565886818438e-02  -9.4394169332883637e-02  -9.2017073012183634e-02  -8.8128990043626954e-02  -8.5281485180408914e-02  -1.5232012518047841e-01  -1.5428450043427694e-01  -8.1799345538176332e-02  -7.8529119727193494e-02  -7.5471899616724458e-02  -7.2208265463773763e-02  -6.9260985925061330e-02  -6.5642787635836364e-02  -6.3159844568104390e-02  -5.9216626718054756e-02  -1.4687489298542239e-01  -5.7280389218365514e-02  -5.2920228817060454e-02  -5.1362319627184905e-02  -4.6776253818617074e-02  -4.5808014109186800e-02  -4.0919211240855118e-02  -1.4990863098669635e-01  -1.5215331596438400e-01  -1.6037259646261851e-01  -4.0436411809859560e-02  -3.5272711533661349e-02  -3.5346804506477286e-02  -2.9920169808915990e-02  -3.0521222185091183e-02  -2.4888826970245321e-02  -1.5743428924784700e-01  -2.5974818809914060e-02  -2.0146603762489928e-02  -1.3704595467048519e-01  -2.1692323711571398e-02  -1.5736724197935394e-02  -1.7701600144491472e-02  -1.1649041004489175e-02  -1.3917759301266550e-02  -7.8730251305141746e-03  -1.5730251289975489e-01  -1.2342925890987204e-01  -1.0466769951686288e-02  -4.4064706175910079e-03  -1.4664445108262625e-01  -1.4823855103775244e-01  -1.4477029216768611e-01  -1.0741158862917417e-01  -7.2028477113316117e-03  -1.0897828459967766e-03  -4.2770686790159721e-03  1.8791247572488481e-03  -1.4964439176511370e-03  4.4419753335675086e-03  -3.5882340184750214e-02  1.8248487024791196e-03  -1.9315689140839500e-02  -5.4993304637586109e-02  1.0790428992953763e-03  6.7894270187773857e-03  1.0164081435087974e-02  1.2344208392894249e-02  8.9859099072360626e-03  1.4307829767636346e-02  1.1058628180657348e-02  1.6139332834930804e-02  1.2927204742337037e-02  1.7728191622279416e-02  1.4637633812718950e-02  1.9194211778176772e-02  1.6248563239779586e-02  2.0479212113674813e-02  1.7643075904040427e-02  2.1654329891498503e-02  1.9038886376067536e-02  2.2824176035378872e-02  2.0282943419737288e-02  2.3781183795563779e-02  2.1455675705434180e-02  2.4609450560434627e-02  2.2389812567031799e-02  2.5363703544869495e-02  -7.5009406413874352e-02  -9.0319540617445460e-02  2.3345990012649812e-02  2.5996216069051649e-02  2.4250540859709620e-02  2.6598769112866998e-02  -1.4404361829478196e-01  -1.0879382663376044e-01  2.5052756849540964e-02  2.7090905307016678e-02  -1.2614451421185618e-01  -7.2992050601450725e-02  -1.4247316022255108e-01  -1.4370780976031988e-01  -1.5034169089704572e-01  -1.4469316810230121e-01  -1.5043416906141632e-01  -1.4501642762208403e-01  -1.5128623358600776e-01  -1.4483777687772489e-01  -1.4944263070456135e-01  -1.4358941834881078e-01  -1.4836865273753322e-01  -1.4185139961112694e-01  -1.4509173143772747e-01  -1.3932776372817099e-01  -1.4181394870027769e-01  -1.3649667479089736e-01  -1.3826108009709243e-01  -1.3328543096982931e-01  -1.3454459844419095e-01  -1.2990576157193340e-01  -1.3071769946952003e-01  -1.2637052271523774e-01  -1.2686450932767060e-01  -1.2277311953309317e-01  -1.2299610784731284e-01  -1.1917593372231040e-01  -1.1879888712099759e-01  -1.1526527592321338e-01  -1.1526994916195303e-01  -1.1166616080197485e-01  -1.1155929299397165e-01  -1.0805545875546708e-01  -1.0795400793795536e-01  -1.0448503379022983e-01  -1.0409511869954673e-01  -1.0084261893305510e-01  -1.3377232209380133e-01  -1.1117887764577591e-01  -1.2512311782065971e-01  -1.0037083154970387e-01  -9.7120350640689621e-02  -9.7338438144421072e-02  -9.3804590778372443e-02  -9.3356926908380475e-02  -9.0190229297466590e-02  -8.9547295995699563e-02  -8.6514196873361107e-02  -8.5752358107900217e-02  -8.2774879943351559e-02  -8.9899151822860193e-02  -1.5582127087829922e-01  -1.5073667551781877e-01  -8.2018528554550982e-02  -7.8980955236378339e-02  -7.9688484124851258e-02  -7.5907470309617961e-02  -7.5163602096700297e-02  -7.2147598716954628e-02  -7.1288490714778871e-02  -6.8359208526744542e-02  -1.4330141498165724e-01  -7.2627270935994415e-02  -6.7436585080041911e-02  -6.4585035282290940e-02  -1.3500490551435310e-01  -6.3699182507675117e-02  -6.0752970610033152e-02  -6.1908044664753387e-02  -5.7759390194437855e-02  -5.6812313420417593e-02  -5.3711879518702224e-02  -5.4613618765291132e-02  -5.0572861315145448e-02  -4.9681524194569365e-02  -4.6539314881628546e-02  -4.5634938337474312e-02  -4.2411314216779475e-02  -4.3339364661458359e-02  -3.9217758971258447e-02  -3.8256219096584200e-02  -3.5090164699287718e-02  -3.4163872882708210e-02  -3.0978963274970586e-02  -1.3966775636533496e-01  -1.1136822975689231e-01  -1.2667141360731560e-01  -3.0143891218661865e-02  -2.6899133612919523e-02  -2.7745514019759096e-02  -2.3514127649014553e-02  -2.2670502461588790e-02  -1.9288036847837097e-02  -2.4359105788578174e-02  2.5686706604636834e-02  2.7498665939492618e-02  2.6260695065007490e-02  2.7839153829588913e-02  2.6769238119896104e-02  2.8109084249902147e-02  -9.2737462778616761e-02  -4.5566592183711473e-02  -1.6021309113601973e-01  -1.8410260699744881e-02  -1.5096339175423535e-02  -1.0348956752624665e-01  2.3510219166036586e-02  2.7389662653609620e-02  1.5199361066114589e-02  2.7186837881378625e-02  2.8299380765207605e-02  2.9308813937735028e-02  2.9284220797965981e-02  2.8416004714249259e-02  2.9207541011546496e-02  2.8465534981194720e-02  2.9072418427046356e-02  2.8433659297828616e-02  2.8871863273322394e-02  2.8329980905319779e-02  2.8613206352513815e-02  2.8143478359588966e-02  2.8283574436467607e-02  2.7881796301779987e-02  2.7894835862200235e-02  2.7547645497210040e-02  2.7445116008197171e-02  2.7144752559159387e-02  2.6936417989197107e-02  2.6662172224208327e-02  2.6354054237094596e-02  2.6098760005861220e-02  2.5720355189093033e-02  2.5459616915601502e-02  2.5000794362394847e-02  2.4760630404465453e-02  2.4240940996337116e-02  2.3968059824728414e-02  2.3396335085841217e-02  2.3121321023741512e-02  2.2504250646491503e-02  2.9025708097168562e-02  -4.0213053059007443e-02  -7.4338649356227790e-02  -1.4094512140358102e-02  -1.0794639843733182e-02  -1.1786674034116170e-02  -7.3347577175167846e-03  -8.3709092745268589e-03  -3.8166206361670853e-03  -2.8990729085811538e-03  6.3796524329669409e-04  1.6766462152793780e-03  5.1853209064394090e-03  4.2439708351191367e-03  8.7788885429825724e-03  9.5792718728962643e-03  1.3279123043294322e-02  1.4066605405281084e