<?xml version="1.0"?>
<VTKFile type="UnstructuredGrid"  version="0.1"  >
<UnstructuredGrid>
<Piece  NumberOfPoints="2886" NumberOfCells="5412">
<Points>
<DataArray  type="Float64"  NumberOfComponents="3"  format="ascii">0 0.1 0  0.98 0.1 0  1 0.1 0  1 0 0  1.5 0 0  3 0 0  3 0.3 0  0 0.3 0  0.01975375321854102 0.1 0  0.03918897458218897 0.1 0  0.05831079002627837 0.1 0  0.07712425666319796 0.1 0  0.0956343475259058 0.1 0  0.1138459546796227 0.1 0  0.1317638870668193 0.1 0  0.1493928840275937 0.1 0  0.1667376092280033 0.1 0  0.1838026357802664 0.1 0  0.2005924801287244 0.1 0  0.2171115811543574 0.1 0  0.2333643037107681 0.1 0  0.2493549444060462 0.1 0  0.2650877293306821 0.1 0  0.2805668058011438 0.1 0  0.2957962848620976 0.1 0  0.3107801766802674 0.1 0  0.3255224447361181 0.1 0  0.3400269848175519 0.1 0  0.3542976327080778 0.1 0  0.3683381609158136 0.1 0  0.3821522744564845 0.1 0  0.3957436316838916 0.1 0  0.4091158196437086 0.1 0  0.4222723742184605 0.1 0  0.4352167733293057 0.1 0  0.4479524348643424 0.1 0  0.4604827295467524 0.1 0  0.4728109659990664 0.1 0  0.4849404035409129 0.1 0  0.4968742471455402 0.1 0  0.508615651843175 0.1 0  0.520167721130924 0.1 0  0.5315335063628542 0.1 0  0.5427160117228604 0.1 0  0.5537181940261912 0.1 0  0.564542961924507 0.1 0  0.575193173270606 0.1 0  0.5856716438765114 0.1 0  0.5959811458006617 0.1 0  0.6061243988680743 0.1 0  0.6161040893285659 0.1 0  0.6259228503970299 0.1 0  0.6355832809287655 0.1 0  0.6450879281079505 0.1 0  0.6544393102991295 0.1 0  0.663639896558931 0.1 0  0.6726921201956305 0.1 0  0.6815983691630338 0.1 0  0.6903610031396646 0.1 0  0.6989823343332418 0.1 0  0.7074646404270378 0.1 0  0.7158101645005117 0.1 0  0.7240211149852543 0.1 0  0.7320996585612525 0.1 0  0.7400479319727645 0.1 0  0.7478680336617921 0.1 0  0.755562036504958 0.1 0  0.7631319665092091 0.1 0  0.7705798279317605 0.1 0  0.777907588066146 0.1 0  0.7851171851013118 0.1 0  0.7922105226004981 0.1 0  0.7991894774550319 0.1 0  0.8060558928136696 0.1 0  0.812811583201334 0.1 0  0.8194583352091183 0.1 0  0.8259979035038147 0.1 0  0.8324320194413813 0.1 0  0.8387623808293405 0.1 0  0.8449906627004957 0.1 0  0.8511185094880469 0.1 0  0.8571475426008311 0.1 0  0.8630793533568246 0.1 0  0.8689155114558531 0.1 0  0.8746575581239063 0.1 0  0.8803070109173519 0.1 0  0.885865363938836 0.1 0  0.8913340851680313 0.1 0  0.8967146206523592 0.1 0  0.9020083930695622 0.1 0  0.9072167995950768 0.1 0  0.9123412183131177 0.1 0  0.9173830029719022 0.1 0  0.9223434865647732 0.1 0  0.9272239785872722 0.1 0  0.9320257720706087 0.1 0  0.9367501330378739 0.1 0  0.9413983102716995 0.1 0  0.9459715351562933 0.1 0  0.9504710127113115 0.1 0  0.9548979346500661 0.1 0  0.9592534708344373 0.1 0  0.9635387708980176 0.1 0  0.9677549682252325 0.1 0  0.971903177251235 0.1 0  0.9759844952956497 0.1 0  0.9840000000000086 0.1 0  0.987999999999974 0.1 0  0.9919999999999393 0.1 0  0.9959999999999913 0.1 0  1 0.09591793123533533 0  1 0.09133596463859224 0  1 0.08619288104391448 0  1 0.08041996484521211 0  1 0.07394008421771697 0  1 0.06666666567302955 0  1 0.05850252932209174 0  1 0.04933859630113544 0  1 0.03905242821848202 0  1 0.02750659386753798 0  1 0.01454683679239736 0  1.015625 0 0  1.03125 0 0  1.046875 0 0  1.0625 0 0  1.078125 0 0  1.09375 0 0  1.109375 0 0  1.125 0 0  1.140625 0 0  1.15625 0 0  1.171875 0 0  1.1875 0 0  1.203125 0 0  1.21875 0 0  1.234375 0 0  1.25 0 0  1.265625 0 0  1.28125 0 0  1.296875 0 0  1.3125 0 0  1.328125 0 0  1.34375 0 0  1.359375 0 0  1.375 0 0  1.390625 0 0  1.40625 0 0  1.421875 0 0  1.4375 0 0  1.453125 0 0  1.46875 0 0  1.484375 0 0  1.515920751924515 0 0  1.531989369316721 0 0  1.54820720925872 0 0  1.564575665560501 0 0  1.581096138674279 0 0  1.597770029901263 0 0  1.614598783332311 0 0  1.631583831055205 0 0  1.64872661129721 0 0  1.666028606716533 0 0  1.683491276608443 0 0  1.701116134125304 0 0  1.718904673324128 0 0  1.736858414799339 0 0  1.754978895814663 0 0  1.773267661782904 0 0  1.791726281103402 0 0  1.810356325314689 0 0  1.8291593848892 0 0  1.848137076690385 0 0  1.867291007717254 0 0  1.886622833871288 0 0  1.90613418642363 0 0  1.925826753299799 0 0  1.945702199101513 0 0  1.96576223584749 0 0  1.986008569283268 0 0  2.006442931928877 0 0  2.02706707547783 0 0  2.047882750887917 0 0  2.06889175187935 0 0  2.090095860038271 0 0  2.111496891648636 0 0  2.133096679109554 0 0  2.154897066851056 0 0  2.176899916687499 0 0  2.199107102752146 0 0  2.22152053937028 0 0  2.244142122958061 0 0  2.266973806444078 0 0  2.290017523268154 0 0  2.313275249499252 0 0  2.336748971745516 0 0  2.360440702338606 0 0  2.384352453384031 0 0  2.408486280477412 0 0  2.432844240041185 0 0  2.457428414757088 0 0  2.482240901796653 0 0  2.507283830121838 0 0  2.532559332080812 0 0  2.558069568787417 0 0  2.583816724966441 0 0  2.60980299606584 0 0  2.636030600971886 0 0  2.662501790984011 0 0  2.689218818279327 0 0  2.716183964547616 0 0  2.743399548861297 0 0  2.77086788244719 0 0  2.798591312896326 0 0  2.826572223178268 0 0  2.854812990138617 0 0  2.883316031690714 0 0  2.912083780657189 0 0  2.941118704633482 0 0  2.970423276998917 0 0  3 0.02999999999994495 0  3 0.05999999999987042 0  3 0.089999999999783 0  3 0.119999999999701 0  3 0.149999999999619 0  3 0.179999999999692 0  3 0.2099999999997737 0  3 0.2399999999998511 0  3 0.2699999999999185 0  2.970138294777171 0.3 0  2.940375666438236 0.3 0  2.910711782853056 0.3 0  2.881146331305122 0.3 0  2.851678975030285 0.3 0  2.822309388626621 0.3 0  2.793037250095074 0.3 0  2.76386223529133 0.3 0  2.734784017903872 0.3 0  2.705802289276642 0.3 0  2.676916713794697 0.3 0  2.648126987654635 0.3 0  2.619432780406184 0.3 0  2.590833779385199 0.3 0  2.562329669847737 0.3 0  2.533920134950189 0.3 0  2.505604855727852 0.3 0  2.477383539822502 0.3 0  2.449255847639465 0.3 0  2.421221492569094 0.3 0  2.393280152486815 0.3 0  2.36543151914496 0.3 0  2.337675285481809 0.3 0  2.310011142385583 0.3 0  2.282438797441587 0.3 0  2.254957931061538 0.3 0  2.227568248063605 0.3 0  2.200269436651085 0.3 0  2.173061204949961 0.3 0  2.145943251515011 0.3 0  2.118915272469994 0.3 0  2.091976978084957 0.3 0  2.065128060700849 0.3 0  2.038368218849433 0.3 0  2.01169717777258 0.3 0  1.985114624111908 0.3 0  1.958620267850966 0.3 0  1.93221382054972 0.3 0  1.905894991850698 0.3 0  1.879663489459713 0.3 0  1.853519019126419 0.3 0  1.827461291053897 0.3 0  1.801490031354372 0.3 0  1.775604937580312 0.3 0  1.74980572560258 0.3 0  1.724092118631866 0.3 0  1.698463829173586 0.3 0  1.672920575782554 0.3 0  1.647462076974085 0.3 0  1.622088043536933 0.3 0  1.5967981978949 0.3 0  1.571592267767068 0.3 0  1.546469970305736 0.3 0  1.521431023814044 0.3 0  1.496475156230927 0.3 0  1.471602093687753 0.3 0  1.446811560490646 0.3 0  1.422103279101731 0.3 0  1.397476971708191 0.3 0  1.37293238939876 0.3 0  1.348469231419202 0.3 0  1.324087248732772 0.3 0  1.299786165921677 0.3 0  1.275565710847046 0.3 0  1.251425617644257 0.3 0  1.227365618676339 0.3 0  1.203385446174014 0.3 0  1.179484853067473 0.3 0  1.155663548773374 0.3 0  1.131921292279077 0.3 0  1.108257802159295 0.3 0  1.084672829009693 0.3 0  1.061166115303374 0.3 0  1.037737392995421 0.3 0  1.01438640299116 0.3 0  0.991112899770314 0.3 0  0.9679166155523955 0.3 0  0.944797284182564 0.3 0  0.921754678526042 0.3 0  0.8987885143602501 0.3 0  0.8758985548820624 0.3 0  0.8530845484099929 0.3 0  0.8303462351786988 0.3 0  0.8076833651172373 0.3 0  0.7850956864865304 0.3 0  0.7625829601354557 0.3 0  0.7401449314598274 0.3 0  0.717781337993959 0.3 0  0.6954919649675473 0.3 0  0.6732765357561226 0.3 0  0.6511348120768439 0.3 0  0.6290665642016573 0.3 0  0.6070715355430467 0.3 0  0.5851494825775325 0.3 0  0.5633001690203812 0.3 0  0.5415233562273221 0.3 0  0.5198187909431873 0.3 0  0.4981862401387795 0.3 0  0.4766254686134248 0.3 0  0.4551362360485234 0.3 0  0.4337182975262159 0.3 0  0.4123714223228037 0.3 0  0.3910953802377493 0.3 0  0.3698899313205595 0.3 0  0.3487548463710963 0.3 0  0.3276898864081783 0.3 0  0.3066948129116018 0.3 0  0.2857694003037476 0.3 0  0.2649134227095047 0.3 0  0.2441266417321288 0.3 0  0.2234088223399122 0.3 0  0.2027597568977288 0.3 0  0.1821792020676698 0.3 0  0.1616669305402443 0.3 0  0.1412227158799362 0.3 0  0.12084633013886 0.3 0  0.1005375673448281 0.3 0  0.08029618164595353 0.3 0  0.06012194778526769 0.3 0  0.04001466495039718 0.3 0  0.01997408913631205 0.3 0  0 0.2800000000000553 0  0 0.2600000000001105 0  0 0.2400000000001658 0  0 0.2200000000002211 0  0 0.2000000000002764 0  0 0.1800000000002244 0  0 0.1600000000001691 0  0 0.140000000000115 0  0 0.1200000000000564 0  1.13346801534201 0.01255848438672509 0  1.003577645172735 0.09351054173913405 0  0.9777559943702486 0.1034978156913738 0  0.9524533750752109 0.1040889939962738 0  0.9296242411226409 0.1041520033606139 0  0.9046110503652111 0.104409422380137 0  0.8777709649694228 0.1053360318797398 0  0.8483859145648608 0.1061007868330701 0  0.8162363822948977 0.1052777104363292 0  0.7893110024210437 0.1060761643971561 0  0.7587949382612539 0.1067265405088633 0  0.7280603867732535 0.1069398153264939 0  0.6947001989413015 0.1075609887579097 0  0.6590363283767549 0.1076715322596598 0  0.6210028614493155 0.1072970410408442 0  1.1953125 0.01353164693413185 0  1.258193991486058 0.01269648635163345 0  1.3201967268638 0.01407907077719561 0  1.383538555392096 0.01434101079053473 0  1.445312500000001 0.01303671693628424 0  1.508925448095738 0.01398525724792267 0  0.9939176689634008 0.1034638089837981 0  1.120967497222226 0.2796788492172345 0  1.572835902117391 0.01424132418857359 0  1.637573277451887 0.01212536916586023 0  1.709730776795181 0.01466855431023635 0  1.005631976950563 0.07074019818158772 0  1.784944696816299 0.01454708406461822 0  0.5805605730631225 0.1101465090472147 0  1.855621181165637 0.01550931272897607 0  0.5366111276616774 0.1096761308243709 0  1.935200147913231 0.01760344159641829 0  1.214922267975168 0.2799787705802257 0  1.31178773425331 0.2792
[...]
<PointData  Scalars="pressure"> 
<DataArray  type="Float64"  Name="pressure"  format="ascii">1.5813584826008378e-01  -1.6563874972035950e-01  -2.1595499369975474e-01  -1.6156971915550883e-01  -4.1273907656963121e-02  0.0000000000000000e+00  0.0000000000000000e+00  1.5814297071142910e-01  1.5220972600089586e-01  1.4637909365433441e-01  1.4064238473952681e-01  1.3499807457045382e-01  1.2944464994068700e-01  1.2398063169843104e-01  1.1860458514544694e-01  1.1331504030348864e-01  1.0811060154223781e-01  1.0298988059451811e-01  9.7951472798870121e-02  9.2994028942196147e-02  8.8116234658979886e-02  8.3316728054863551e-02  7.8594211491463742e-02  7.3947470059962647e-02  6.9375110070162546e-02  6.4875938581758857e-02  6.0448714420420345e-02  5.6092139445765903e-02  5.1805049648376428e-02  4.7586315811483385e-02  4.3434591275647395e-02  3.9348795754180654e-02  3.5327644903530159e-02  3.1370040697380537e-02  2.7474939647672721e-02  2.3641074837457358e-02  1.9867269322324084e-02  1.6152476312945634e-02  1.2495567472729244e-02  8.8953531310120553e-03  5.3508409544254579e-03  1.8608009498507949e-03  -1.5757870692158786e-03  -4.9600965765689191e-03  -8.2931996171139218e-03  -1.1575779163890711e-02  -1.4809644833552663e-02  -1.7995419330351172e-02  -2.1134210734989695e-02  -2.4227301099569096e-02  -2.7275709742402048e-02  -3.0279882795715786e-02  -3.3241872361022842e-02  -3.6162167324963489e-02  -3.9041891568088606e-02  -4.1882182264839453e-02  -4.4684034444367145e-02  -4.7448499430126433e-02  -5.0176763212283780e-02  -5.2869765508237763e-02  -5.5528477553789646e-02  -5.8153857512661965e-02  -6.0747488362058108e-02  -6.3309760509587143e-02  -6.5841951041997429e-02  -6.8344724365329318e-02  -7.0820105422693500e-02  -7.3268537793427319e-02  -7.5690266001136625e-02  -7.8087041421864012e-02  -8.0460450178867438e-02  -8.2810199704071052e-02  -8.5138366724623854e-02  -8.7445690737368104e-02  -8.9732462442739802e-02  -9.2000281985066032e-02  -9.4250059805925865e-02  -9.6482734445976215e-02  -9.8700067157386440e-02  -1.0090215656190440e-01  -1.0308949654673855e-01  -1.0526274634243139e-01  -1.0742539089105634e-01  -1.0957653542329759e-01  -1.1171687579991693e-01  -1.1384831720174349e-01  -1.1597127132152878e-01  -1.1808671503797294e-01  -1.2019577469876035e-01  -1.2230036454548394e-01  -1.2440096726396532e-01  -1.2649783522078201e-01  -1.2859336708970681e-01  -1.3068848237081324e-01  -1.3278433788143973e-01  -1.3488233577565137e-01  -1.3698372745959650e-01  -1.3909018699317940e-01  -1.4120345170361240e-01  -1.4332546697985446e-01  -1.4545831070251411e-01  -1.4760350075423603e-01  -1.4976282038926866e-01  -1.5192553632354622e-01  -1.5430036059864374e-01  -1.5558853237442916e-01  -1.5926304961917537e-01  -1.5697615163493256e-01  -1.6190641830642696e-01  -1.5917901095144302e-01  -2.0337451952272809e-01  -1.8196797971448811e-01  -1.7539282269473233e-01  -1.7060689523831465e-01  -1.6737543647728748e-01  -1.6495034401837855e-01  -1.6313416337086936e-01  -1.6180403074944222e-01  -1.6100591155636459e-01  -1.6081128509526726e-01  -1.6121787415592084e-01  -1.6201022514491359e-01  -1.6238524970330243e-01  -1.6218011420762302e-01  -1.6150993374049721e-01  -1.6046533725010306e-01  -1.5909012958569740e-01  -1.5736945262408686e-01  -1.5529062729208160e-01  -1.5288279038806918e-01  -1.5016338734334572e-01  -1.4713650362596697e-01  -1.4381594820660884e-01  -1.4021289722582481e-01  -1.3633948137965687e-01  -1.3221611287034446e-01  -1.2785575428130727e-01  -1.2327085108308260e-01  -1.1847972226320946e-01  -1.1350120530179827e-01  -1.0834594034944293e-01  -1.0304369209193096e-01  -9.7612649128745677e-02  -9.2068618332019223e-02  -8.6442149901675244e-02  -8.0751507731569444e-02  -7.5025916738031148e-02  -6.9287531608437536e-02  -6.3558706582178312e-02  -5.7870809945296232e-02  -5.2244479702688945e-02  -4.6705415034091723e-02  -3.5874422936381219e-02  -3.0591524167792199e-02  -2.5434617545242504e-02  -2.0437511686122314e-02  -1.5626881815395937e-02  -1.1004904039936031e-02  -6.5982000010977567e-03  -2.4120084573939385e-03  1.5052413816598507e-03  5.1773089388302117e-03  8.6037976395634871e-03  1.1763611372421075e-02  1.4658896020255699e-02  1.7296509928834886e-02  1.9680279591022361e-02  2.1815161602763793e-02  2.3716376000197447e-02  2.5384382544287248e-02  2.6833371760895539e-02  2.8093686867932437e-02  2.9153834370633434e-02  3.0043786714173806e-02  3.0777058838126398e-02  3.1361627108911327e-02  3.1818785034791817e-02  3.2152878957244703e-02  3.2395011597821842e-02  3.2535628018504993e-02  3.2595665145197475e-02  3.2579974216977003e-02  3.2496301470810729e-02  3.2354036225256420e-02  3.2162403565547941e-02  3.1925469447741238e-02  3.1643912612929620e-02  3.1324907505458473e-02  3.0969088325197586e-02  3.0579153192226944e-02  3.0156131063378746e-02  2.9700394827944530e-02  2.9212283682895065e-02  2.8691680516838066e-02  2.8137299883207494e-02  2.7549435408146750e-02  2.6925531896817085e-02  2.6264252655868139e-02  2.5566731849061896e-02  2.4828097185648438e-02  2.4046379956742615e-02  2.3226013358554790e-02  2.2357406474522324e-02  2.1447700861827772e-02  2.0486371881102496e-02  1.9482336819666383e-02  1.8427794475250735e-02  1.7318989028886102e-02  1.6166431446165794e-02  1.4955936708056960e-02  1.3698905120226760e-02  1.2389239962413196e-02  1.1025942034890299e-02  9.6089995248161853e-03  8.1405469221186317e-03  6.6237725971539886e-03  5.0492736494161155e-03  3.4346257056625117e-03  1.7636537176919582e-03  0.0000000000000000e+00  0.0000000000000000e+00  0.0000000000000000e+00  0.0000000000000000e+00  0.0000000000000000e+00  0.0000000000000000e+00  0.0000000000000000e+00  0.0000000000000000e+00  0.0000000000000000e+00  1.9122518211371672e-03  3.6973567125508948e-03  5.4546998639621929e-03  7.1590161379768051e-03  8.8140574652636958e-03  1.0418517970505583e-02  1.1971447129253280e-02  1.3471118287726538e-02  1.4914664668718014e-02  1.6299860789693366e-02  1.7622701970533460e-02  1.8880695891448043e-02  2.0068780899170826e-02  2.1183958711389710e-02  2.2221410008532352e-02  2.3174541173714393e-02  2.4042986474160304e-02  2.4815632734821548e-02  2.5487838037114213e-02  2.6053472903873318e-02  2.6505693777459146e-02  2.6837891251973826e-02  2.7044421426178435e-02  2.7114518137686915e-02  2.7046675030447862e-02  2.6829096508492866e-02  2.6459663692700804e-02  2.5927041883541776e-02  2.5226131984156554e-02  2.4354283661411829e-02  2.3300766387702124e-02  2.2060106346470258e-02  2.0647248887879048e-02  1.9047828990609989e-02  1.7235888503154467e-02  1.5251465762211570e-02  1.3071521847662982e-02  1.0696690916366117e-02  8.1284738455038186e-03  5.3744918120674275e-03  2.4258346646206306e-03  -7.0364700881823949e-04  -4.0223975225665582e-03  -7.5197862393475813e-03  -1.1206984688732208e-02  -1.5067988434822651e-02  -1.9104059993434380e-02  -2.3305911288330483e-02  -2.7676792213337811e-02  -3.2202486424473341e-02  -3.6880028343685048e-02  -4.1697769439683896e-02  -4.6642094323163887e-02  -5.1704196988948584e-02  -5.6868250398966654e-02  -6.2110480107082658e-02  -6.7371615083872932e-02  -7.2698417891609191e-02  -7.8005562768557427e-02  -8.3233736036531059e-02  -8.8387165599901535e-02  -9.3394481286970282e-02  -9.8236846009123857e-02  -1.0280866969380528e-01  -1.0710381222792555e-01  -1.1101346356868168e-01  -1.1452592058654171e-01  -1.1753120176193861e-01  -1.2003384752664635e-01  -1.2190206865678631e-01  -1.2315140842308792e-01  -1.2371006898295857e-01  -1.2344996507814789e-01  -1.2254249670122251e-01  -1.2085254389594158e-01  -1.1838815160391908e-01  -1.1526688142979388e-01  -1.1151229455811316e-01  -1.0725043499903478e-01  -1.0255058671242007e-01  -9.7413099430384537e-02  -9.1974591315890267e-02  -8.6274446566587573e-02  -8.0405525465601410e-02  -7.4372416940535827e-02  -6.8203283304905021e-02  -6.1950645572173328e-02  -5.5627602784314875e-02  -4.9245351285851793e-02  -4.2827524644737970e-02  -3.6379255344053701e-02  -2.9918891217418725e-02  -2.3449356688957382e-02  -1.6973251442499660e-02  -1.0502005582013871e-02  -4.0368553045115217e-03  2.4209723765312831e-03  8.8680086125736256e-03  1.5301160269105916e-02  2.1719274630761714e-02  2.8121830410122391e-02  3.4507303080591967e-02  4.0875502386686531e-02  4.7224829748607047e-02  5.3555635369152033e-02  5.9867200159132723e-02  6.6159253761625667e-02  7.2431701983952296e-02  7.8684238896006647e-02  8.4916815567662604e-02  9.1129397746523302e-02  9.7321890359410260e-02  1.0349426802662506e-01  1.0964653158971262e-01  1.1577869297370362e-01  1.2189073173888436e-01  1.2798271859551433e-01  1.3405467478365801e-01  1.4010662971039137e-01  1.4613863772441130e-01  1.5215073424355663e-01  1.5814294317541450e-01  1.5814264706548761e-01  1.5814192403772664e-01  1.5814078916050639e-01  1.5813941070944015e-01  1.5813803083635028e-01  1.5813689358734959e-01  1.5813616574114828e-01  1.5813587069325993e-01  -1.5372418154051362e-01  -1.8644695904371636e-01  -1.5802426595866964e-01  -1.4442299026859359e-01  -1.3393422865592636e-01  -1.2342732258295981e-01  -1.1295935844557174e-01  -1.0216878024211558e-01  -9.0936322684455201e-02  -8.1879538744396171e-02  -7.1888785629350679e-02  -6.2046069293605226e-02  -5.1545769809719207e-02  -4.0470521917861435e-02  -2.8780656315282420e-02  -1.4187280424075532e-01  -1.2543896110265637e-01  -1.0583334983900154e-01  -8.3535071467545449e-02  -6.0982886586565963e-02  -3.8601133085408135e-02  -1.7059404443167717e-01  -1.2194828909621157e-01  -1.8418872890948471e-02  -1.3907560483409263e-03  1.2800230751296238e-02  -1.6685318819100567e-01  2.2703411942431362e-02  -1.6446911179753419e-02  2.8239394408704953e-02  -3.1158149028501247e-03  3.1366238796267508e-02  -1.1220854520847214e-01  -9.5184600819096243e-02  3.2447790017983098e-02  -7.4918205198829441e-02  1.0695733015634031e-02  -4.8770755413624474e-02  3.2169651042712355e-02  2.5556563183409396e-02  -1.5929362945973766e-01  3.1075465276356979e-02  -2.5259920051356320e-02  -1.2253483853272033e-01  4.0959529218475836e-02  2.9405345449774391e-02  -2.3057533138345528e-03  5.8457355738752499e-02  6.6157829461610859e-03  2.7172589416777974e-02  1.4261553986057697e-02  7.5748455675789444e-02  -1.1653389691776929e-01  2.4450310699853536e-02  1.9836152411583503e-02  -1.0479069332301752e-01  2.3834640884401924e-02  2.0946985142199837e-02  -8.9119900865486004e-02  9.5948631545283963e-02  1.0996573269610746e-01  -1.3028101209399632e-02  1.7842552849845005e-02  1.4154492835324980e-02  2.6122417785251789e-02  -7.1493853304827271e-02  2.6975725004608778e-02  -1.5082286550012053e-01  -4.6478295288318011e-02  2.6180577587658450e-02  1.2741752009498372e-01  -2.6722512713658168e-02  1.0288851764395052e-02  2.3542110989669133e-02  -7.1487305716203282e-03  1.8677329665764929e-02  2.0558812229478713e-02  5.0390857757771523e-02  1.6903331810764373e-02  6.9351765404065027e-02  8.8129100564035737e-02  1.2677800087694615e-02  1.1972904177054634e-01  1.6027918560845137e-03  1.5255944546989555e-01  -1.6200323351971579e-01  8.0824265660257317e-03  5.7144764900436103e-03  1.3753164646885671e-01  -1.7340207907241173e-01  -1.6135196098441562e-01  -1.1817954844689768e-01  -5.8696637475591472e-02  5.1506700678852092e-03  3.0982389565880494e-02  1.3787176645134028e-01  -3.9406445386491885e-02  -6.4023949989416379e-02  -8.5183877969093089e-02  -1.0429780502355848e-01  8.6010961377647854e-02  2.6839133397233060e-02  6.6837721697801722e-02  1.0037063659457703e-01  2.5065183330485685e-02  2.2784389318298341e-02  4.9135697058177712e-02  2.5807990461576509e-02  2.8371335668628546e-02  3.3598063405310956e-02  3.0307956664391626e-02  3.1707605521661568e-02  3.2438303131260025e-02  3.2140542578397609e-02  -2.8377139264325224e-02  1.8008121892096204e-02  3.0110567973348552e-02  2.5805507225977860e-02  3.6225897373232136e-03  1.8363484295208444e-02  6.5141888762818654e-03  -9.0396913888572527e-03  1.3373917879770298e-03  -1.0298572357535731e-02  -2.2233754250657812e-02  1.5289928661073307e-01  -3.4392716733464938e-02  -4.6077935845784186e-02  -5.6856960774772869e-02  -6.7206665613043393e-02  -7.6964174340785840e-02  -8.6218402256209511e-02  -1.4826694058724563e-01  -9.7635918581018999e-02  -1.0855440165413802e-01  -1.1921413960159481e-01  -1.3421523143402181e-01  -1.2980054662613877e-01  -9.5174602268619610e-02  -1.1553368065127842e-01  -7.3228172647970879e-02  -4.9785793991611212e-02  -1.4026066697220116e-01  -1.5961081873731525e-01  1.6806289181125133e-03  1.5240261167777844e-01  4.5053425432640881e-03  -1.6178145929574395e-01  1.5315122752253577e-01  1.3639165490991411e-03  1.4904695407742205e-01  -1.6174941138332163e-01  -1.6141106312856285e-01  -1.6095156346995901e-01  -1.6145190899349052e-01  -1.6097475060327757e-01  -1.6180305356324293e-01  -1.6114477823538975e-01  -1.6225739716033127e-01  -1.6142857801225760e-01  -1.6257904669503523e-01  -1.6163151832043388e-01  -1.6250543793920355e-01  -1.6136274205795578e-01  -1.6187295043547958e-01  -1.6059299230561169e-01  -1.6078574598433734e-01  -1.5933070797548204e-01  -1.5930345702082574e-01  -1.5767997163984859e-01  -1.5725883911998670e-01  -1.5533418742180524e-01  -1.5893508958722111e-01  -1.5585586535977156e-01  -1.5312445177864348e-01  -1.5621163018982809e-01  -1.5815723699640813e-01  -1.5341616655534335e-01  -1.5054470433377701e-01  -1.5075845432403098e-01  -1.4752484080550768e-01  -1.4762107841687563e-01  -1.4407000807859857e-01  -1.4408331861439491e-01  -1.4046157950406285e-01  -1.4014205639140956e-01  -1.3579559145335296e-01  -1.3558169436185916e-01  -1.3141391372796962e-01  -1.3077978122061298e-01  -1.2645360920304194e-01  -1.2558183203282589e-01  -1.2116980161227360e-01  -1.2007389996240722e-01  -1.1562361325960233e-01  -1.1426436390363939e-01  -1.0984488706198725e-01  -1.0818718866329133e-01  -1.0384922473180676e-01  -1.0190689362082032e-01  -9.7715753785332052e-02  -9.5437611214121781e-02  -9.1482096368215193e-02  -8.8750803526042824e-02  -1.5435325338954919e-01  -1.5611301623812696e-01  -8.5165551631478056e-02  -8.2013595834963218e-02  -7.8846738460763843e-02  -7.5701906514370892e-02  -7.2619741361753851e-02  -6.9128679960340833e-02  -6.6490376432568207e-02  -6.2677614557763509e-02  -1.4943520558614307e-01  -6.0571725507812257e-02  -5.6340354023620594e-02  -5.4566022392279208e-02  -5.0133581434135634e-02  -4.8970344417546378e-02  -4.4206225989391265e-02  -1.5151196301799275e-01  -1.5340415837084220e-01  -1.6300490155478423e-01  -4.3514627715739336e-02  -3.8472482874509696e-02  -3.8333052708735729e-02  -3.3019063538986579e-02  -3.3406446441958955e-02  -2.7877550601309378e-02  -1.5943740913021850e-01  -2.8752827429962831e-02  -2.3015665866730931e-02  -1.3976131200432806e-01  -2.4358137842227543e-02  -1.8480621351042472e-02  -2.0254245288838263e-02  -1.4264888975863496e-02  -1.6359507332951956e-02  -1.0359298460805733e-02  -1.5995973874766928e-01  -1.2635616760477542e-01  -1.2796877038683971e-02  -6.7649455616740541e-03  -1.4772501865240106e-01  -1.4888981180203936e-01  -1.4618549489806762e-01  -1.1052586598255784e-01  -9.4246429191354852e-03  -3.3220621209555032e-03  -6.3935632484540417e-03  -2.3101921224807982e-04  -3.5137682848420254e-03  2.4460770780824420e-03  -3.9278336548777854e-02  -5.6070079530319344e-04  -2.2396584358482127e-02  -5.8561798367162521e-02  -8.4578624997061545e-04  4.9004709628827619e-03  8.1835730738828369e-03  1.0483369462108727e-02  7.1966417714923606e-03  1.2558349717608599e-02  9.3619770105242087e-03  1.4495555393276930e-02  1.1316924762163691e-02  1.6183464765065218e-02  1.3107577478226390e-02  1.7738887098653414e-02  1.4792771728447058e-02  1.9106247858978468e-02  1.6254492070574285e-02  2.0355831602357041e-02  1.7714860855049371e-02  2.1597229524553844e-02  1.9019076458306139e-02  2.2617368094189783e-02  2.0247815972915664e-02  2.3504401761783075e-02  2.1231656360173767e-02  2.4312186149961421e-02  -7.8584014610354344e-02  -9.3537702448139901e-02  2.2237444359172812e-02  2.4994522120147002e-02  2.3191162936907411e-02  2.5643530245304882e-02  -1.4687384736457906e-01  -1.1211278112897720e-01  2.4040893129778841e-02  2.6180256071502962e-02  -1.2923600937194810e-01  -7.6232400457958441e-02  -1.4302980064567028e-01  -1.4376218453905004e-01  -1.5037489466991069e-01  -1.4411779007765030e-01  -1.4962721508773755e-01  -1.4374419400061056e-01  -1.4953147574250331e-01  -1.4281998244090366e-01  -1.4683658831468394e-01  -1.4089199145230849e-01  -1.4499720052222678e-01  -1.3857337373998543e-01  -1.4114926924324384e-01  -1.3560785373119322e-01  -1.3749572689749515e-01  -1.3246030579631390e-01  -1.3372523345184772e-01  -1.2904874841687897e-01  -1.2989797920834559e-01  -1.2555472696059455e-01  -1.2603383995778886e-01  -1.2196327869899716e-01  -1.2218492465351503e-01  -1.1834546142702186e-01  -1.1834619229543770e-01  -1.1475066031658812e-01  -1.1420063990288284e-01  -1.1087469910612181e-01  -1.1107217864549525e-01  -1.0746135777563921e-01  -1.0718944094021335e-01  -1.0385167243085532e-01  -1.0359631109307886e-01  -1.0028570108025105e-01  -9.9773046274529736e-02  -9.6659026488190622e-02  -1.3038025661564986e-01  -1.0719644963466503e-01  -1.2105204552594549e-01  -9.6082487505588482e-02  -9.2954028388486890e-02  -9.3295986481274282e-02  -8.9761905173332393e-02  -8.9208557200824851e-02  -8.6146404594524342e-02  -8.5418412083094045e-02  -8.2476184921652693e-02  -8.1643843436078084e-02  -7.8749495559862923e-02  -8.5965161354723707e-02  -1.5470528511853668e-01  -1.4650228946432886e-01  -7.7930405667492417e-02  -7.4965927141364783e-02  -7.5744789070001414e-02  -7.1965988836692668e-02  -7.1158527026570093e-02  -6.8205937172863357e-02  -6.7294788368042063e-02  -6.4421072662578988e-02  -1.3837440081119529e-01  -6.8751787036495066e-02  -6.3454520449444621e-02  -6.0650558040386736e-02  -1.3002109902569131e-01  -5.9728440980989846e-02  -5.6824699761932926e-02  -5.8020731052288714e-02  -5.3873249970718261e-02  -5.2889829806307777e-02  -4.9825698499412471e-02  -5.0768743328401859e-02  -4.6722245571509564e-02  -4.5796020530733304e-02  -4.2684756805701524e-02  -4.1751111532406557e-02  -3.8554273952387044e-02  -3.9513641284398833e-02  -3.5385769883903025e-02  -3.4398024577958999e-02  -3.1253810267749621e-02  -3.0305973361729910e-02  -2.7140026249082197e-02  -1.3869041971910120e-01  -1.0685391996306425e-01  -1.2180987146115484e-01  -2.6287028648963869e-02  -2.3058648395371507e-02  -2.3924246869746021e-02  -1.9689056323220742e-02  -1.8829518413001518e-02  -1.5460078456443465e-02  -2.0553559666191872e-02  2.4716583610454795e-02  2.6628291592688241e-02  2.5332414216074330e-02  2.7008516450523740e-02  2.5882612389649694e-02  2.7316347329418570e-02  -8.8512493258516317e-02  -4.8512272540299273e-02  -1.6282599204960521e-01  -1.4569382593793305e-02  -1.1266761558355850e-02  -9.9082093160757181e-02  2.2123774915217487e-02  2.6374751090041074e-02  1.3233581845605344e-02  2.6341372220636435e-02  2.7543037858892651e-02  2.8604483052543712e-02  2.8611680243909365e-02  2.7694741154868797e-02  2.8566010207590236e-02  2.7779013880551266e-02  2.8461012332032163e-02  2.7780575526646326e-02  2.8288520436785761e-02  2.7709782350568528e-02  2.8057784156137442e-02  2.7555052894943709e-02  2.7755214223494768e-02  2.7323949859265190e-02  2.7393002993883239e-02  2.7020159573981305e-02  2.6969185045772625e-02  2.6647012879298083e-02  2.6486218213883972e-02  2.6194119253390723e-02  2.5928826089788994e-02  2.5659428739692340e-02  2.5320105763931827e-02  2.5047638473239865e-02  2.4624405815910588e-02  2.4376006104600636e-02  2.3888648311621505e-02  2.3610650155041695e-02  2.3067239139797784e-02  2.2788765067947078e-02  2.2198286076651075e-02  2.8213073474372727e-02  -3.6412473701703314e-02  -7.0283232908999391e-02  -1.0254335237143617e-02  -6.9642542172256268e-03  -7.9677269163857568e-03  -3.5136084364769857e-03  -4.5614906858338980e-03  -3.7506044412887256e-06  9.2362346805647155e-04  4.4533569449480906e-03  5.5002085672035432e-03  9.0025392524596560e-03  8.0530972215143524e-03  1.2590516070054077e-02  1.3397640281365268e-02  1.7092599926823406e-02  1.788553472035650