<?xml version="1.0"?>
<VTKFile type="UnstructuredGrid"  version="0.1"  >
<UnstructuredGrid>
<Piece  NumberOfPoints="2886" NumberOfCells="5412">
<Points>
<DataArray  type="Float64"  NumberOfComponents="3"  format="ascii">0 0.1 0  0.98 0.1 0  1 0.1 0  1 0 0  1.5 0 0  3 0 0  3 0.3 0  0 0.3 0  0.01975375321854102 0.1 0  0.03918897458218897 0.1 0  0.05831079002627837 0.1 0  0.07712425666319796 0.1 0  0.0956343475259058 0.1 0  0.1138459546796227 0.1 0  0.1317638870668193 0.1 0  0.1493928840275937 0.1 0  0.1667376092280033 0.1 0  0.1838026357802664 0.1 0  0.2005924801287244 0.1 0  0.2171115811543574 0.1 0  0.2333643037107681 0.1 0  0.2493549444060462 0.1 0  0.2650877293306821 0.1 0  0.2805668058011438 0.1 0  0.2957962848620976 0.1 0  0.3107801766802674 0.1 0  0.3255224447361181 0.1 0  0.3400269848175519 0.1 0  0.3542976327080778 0.1 0  0.3683381609158136 0.1 0  0.3821522744564845 0.1 0  0.3957436316838916 0.1 0  0.4091158196437086 0.1 0  0.4222723742184605 0.1 0  0.4352167733293057 0.1 0  0.4479524348643424 0.1 0  0.4604827295467524 0.1 0  0.4728109659990664 0.1 0  0.4849404035409129 0.1 0  0.4968742471455402 0.1 0  0.508615651843175 0.1 0  0.520167721130924 0.1 0  0.5315335063628542 0.1 0  0.5427160117228604 0.1 0  0.5537181940261912 0.1 0  0.564542961924507 0.1 0  0.575193173270606 0.1 0  0.5856716438765114 0.1 0  0.5959811458006617 0.1 0  0.6061243988680743 0.1 0  0.6161040893285659 0.1 0  0.6259228503970299 0.1 0  0.6355832809287655 0.1 0  0.6450879281079505 0.1 0  0.6544393102991295 0.1 0  0.663639896558931 0.1 0  0.6726921201956305 0.1 0  0.6815983691630338 0.1 0  0.6903610031396646 0.1 0  0.6989823343332418 0.1 0  0.7074646404270378 0.1 0  0.7158101645005117 0.1 0  0.7240211149852543 0.1 0  0.7320996585612525 0.1 0  0.7400479319727645 0.1 0  0.7478680336617921 0.1 0  0.755562036504958 0.1 0  0.7631319665092091 0.1 0  0.7705798279317605 0.1 0  0.777907588066146 0.1 0  0.7851171851013118 0.1 0  0.7922105226004981 0.1 0  0.7991894774550319 0.1 0  0.8060558928136696 0.1 0  0.812811583201334 0.1 0  0.8194583352091183 0.1 0  0.8259979035038147 0.1 0  0.8324320194413813 0.1 0  0.8387623808293405 0.1 0  0.8449906627004957 0.1 0  0.8511185094880469 0.1 0  0.8571475426008311 0.1 0  0.8630793533568246 0.1 0  0.8689155114558531 0.1 0  0.8746575581239063 0.1 0  0.8803070109173519 0.1 0  0.885865363938836 0.1 0  0.8913340851680313 0.1 0  0.8967146206523592 0.1 0  0.9020083930695622 0.1 0  0.9072167995950768 0.1 0  0.9123412183131177 0.1 0  0.9173830029719022 0.1 0  0.9223434865647732 0.1 0  0.9272239785872722 0.1 0  0.9320257720706087 0.1 0  0.9367501330378739 0.1 0  0.9413983102716995 0.1 0  0.9459715351562933 0.1 0  0.9504710127113115 0.1 0  0.9548979346500661 0.1 0  0.9592534708344373 0.1 0  0.9635387708980176 0.1 0  0.9677549682252325 0.1 0  0.971903177251235 0.1 0  0.9759844952956497 0.1 0  0.9840000000000086 0.1 0  0.987999999999974 0.1 0  0.9919999999999393 0.1 0  0.9959999999999913 0.1 0  1 0.09591793123533533 0  1 0.09133596463859224 0  1 0.08619288104391448 0  1 0.08041996484521211 0  1 0.07394008421771697 0  1 0.06666666567302955 0  1 0.05850252932209174 0  1 0.04933859630113544 0  1 0.03905242821848202 0  1 0.02750659386753798 0  1 0.01454683679239736 0  1.015625 0 0  1.03125 0 0  1.046875 0 0  1.0625 0 0  1.078125 0 0  1.09375 0 0  1.109375 0 0  1.125 0 0  1.140625 0 0  1.15625 0 0  1.171875 0 0  1.1875 0 0  1.203125 0 0  1.21875 0 0  1.234375 0 0  1.25 0 0  1.265625 0 0  1.28125 0 0  1.296875 0 0  1.3125 0 0  1.328125 0 0  1.34375 0 0  1.359375 0 0  1.375 0 0  1.390625 0 0  1.40625 0 0  1.421875 0 0  1.4375 0 0  1.453125 0 0  1.46875 0 0  1.484375 0 0  1.515920751924515 0 0  1.531989369316721 0 0  1.54820720925872 0 0  1.564575665560501 0 0  1.581096138674279 0 0  1.597770029901263 0 0  1.614598783332311 0 0  1.631583831055205 0 0  1.64872661129721 0 0  1.666028606716533 0 0  1.683491276608443 0 0  1.701116134125304 0 0  1.718904673324128 0 0  1.736858414799339 0 0  1.754978895814663 0 0  1.773267661782904 0 0  1.791726281103402 0 0  1.810356325314689 0 0  1.8291593848892 0 0  1.848137076690385 0 0  1.867291007717254 0 0  1.886622833871288 0 0  1.90613418642363 0 0  1.925826753299799 0 0  1.945702199101513 0 0  1.96576223584749 0 0  1.986008569283268 0 0  2.006442931928877 0 0  2.02706707547783 0 0  2.047882750887917 0 0  2.06889175187935 0 0  2.090095860038271 0 0  2.111496891648636 0 0  2.133096679109554 0 0  2.154897066851056 0 0  2.176899916687499 0 0  2.199107102752146 0 0  2.22152053937028 0 0  2.244142122958061 0 0  2.266973806444078 0 0  2.290017523268154 0 0  2.313275249499252 0 0  2.336748971745516 0 0  2.360440702338606 0 0  2.384352453384031 0 0  2.408486280477412 0 0  2.432844240041185 0 0  2.457428414757088 0 0  2.482240901796653 0 0  2.507283830121838 0 0  2.532559332080812 0 0  2.558069568787417 0 0  2.583816724966441 0 0  2.60980299606584 0 0  2.636030600971886 0 0  2.662501790984011 0 0  2.689218818279327 0 0  2.716183964547616 0 0  2.743399548861297 0 0  2.77086788244719 0 0  2.798591312896326 0 0  2.826572223178268 0 0  2.854812990138617 0 0  2.883316031690714 0 0  2.912083780657189 0 0  2.941118704633482 0 0  2.970423276998917 0 0  3 0.02999999999994495 0  3 0.05999999999987042 0  3 0.089999999999783 0  3 0.119999999999701 0  3 0.149999999999619 0  3 0.179999999999692 0  3 0.2099999999997737 0  3 0.2399999999998511 0  3 0.2699999999999185 0  2.970138294777171 0.3 0  2.940375666438236 0.3 0  2.910711782853056 0.3 0  2.881146331305122 0.3 0  2.851678975030285 0.3 0  2.822309388626621 0.3 0  2.793037250095074 0.3 0  2.76386223529133 0.3 0  2.734784017903872 0.3 0  2.705802289276642 0.3 0  2.676916713794697 0.3 0  2.648126987654635 0.3 0  2.619432780406184 0.3 0  2.590833779385199 0.3 0  2.562329669847737 0.3 0  2.533920134950189 0.3 0  2.505604855727852 0.3 0  2.477383539822502 0.3 0  2.449255847639465 0.3 0  2.421221492569094 0.3 0  2.393280152486815 0.3 0  2.36543151914496 0.3 0  2.337675285481809 0.3 0  2.310011142385583 0.3 0  2.282438797441587 0.3 0  2.254957931061538 0.3 0  2.227568248063605 0.3 0  2.200269436651085 0.3 0  2.173061204949961 0.3 0  2.145943251515011 0.3 0  2.118915272469994 0.3 0  2.091976978084957 0.3 0  2.065128060700849 0.3 0  2.038368218849433 0.3 0  2.01169717777258 0.3 0  1.985114624111908 0.3 0  1.958620267850966 0.3 0  1.93221382054972 0.3 0  1.905894991850698 0.3 0  1.879663489459713 0.3 0  1.853519019126419 0.3 0  1.827461291053897 0.3 0  1.801490031354372 0.3 0  1.775604937580312 0.3 0  1.74980572560258 0.3 0  1.724092118631866 0.3 0  1.698463829173586 0.3 0  1.672920575782554 0.3 0  1.647462076974085 0.3 0  1.622088043536933 0.3 0  1.5967981978949 0.3 0  1.571592267767068 0.3 0  1.546469970305736 0.3 0  1.521431023814044 0.3 0  1.496475156230927 0.3 0  1.471602093687753 0.3 0  1.446811560490646 0.3 0  1.422103279101731 0.3 0  1.397476971708191 0.3 0  1.37293238939876 0.3 0  1.348469231419202 0.3 0  1.324087248732772 0.3 0  1.299786165921677 0.3 0  1.275565710847046 0.3 0  1.251425617644257 0.3 0  1.227365618676339 0.3 0  1.203385446174014 0.3 0  1.179484853067473 0.3 0  1.155663548773374 0.3 0  1.131921292279077 0.3 0  1.108257802159295 0.3 0  1.084672829009693 0.3 0  1.061166115303374 0.3 0  1.037737392995421 0.3 0  1.01438640299116 0.3 0  0.991112899770314 0.3 0  0.9679166155523955 0.3 0  0.944797284182564 0.3 0  0.921754678526042 0.3 0  0.8987885143602501 0.3 0  0.8758985548820624 0.3 0  0.8530845484099929 0.3 0  0.8303462351786988 0.3 0  0.8076833651172373 0.3 0  0.7850956864865304 0.3 0  0.7625829601354557 0.3 0  0.7401449314598274 0.3 0  0.717781337993959 0.3 0  0.6954919649675473 0.3 0  0.6732765357561226 0.3 0  0.6511348120768439 0.3 0  0.6290665642016573 0.3 0  0.6070715355430467 0.3 0  0.5851494825775325 0.3 0  0.5633001690203812 0.3 0  0.5415233562273221 0.3 0  0.5198187909431873 0.3 0  0.4981862401387795 0.3 0  0.4766254686134248 0.3 0  0.4551362360485234 0.3 0  0.4337182975262159 0.3 0  0.4123714223228037 0.3 0  0.3910953802377493 0.3 0  0.3698899313205595 0.3 0  0.3487548463710963 0.3 0  0.3276898864081783 0.3 0  0.3066948129116018 0.3 0  0.2857694003037476 0.3 0  0.2649134227095047 0.3 0  0.2441266417321288 0.3 0  0.2234088223399122 0.3 0  0.2027597568977288 0.3 0  0.1821792020676698 0.3 0  0.1616669305402443 0.3 0  0.1412227158799362 0.3 0  0.12084633013886 0.3 0  0.1005375673448281 0.3 0  0.08029618164595353 0.3 0  0.06012194778526769 0.3 0  0.04001466495039718 0.3 0  0.01997408913631205 0.3 0  0 0.2800000000000553 0  0 0.2600000000001105 0  0 0.2400000000001658 0  0 0.2200000000002211 0  0 0.2000000000002764 0  0 0.1800000000002244 0  0 0.1600000000001691 0  0 0.140000000000115 0  0 0.1200000000000564 0  1.13346801534201 0.01255848438672509 0  1.003577645172735 0.09351054173913405 0  0.9777559943702486 0.1034978156913738 0  0.9524533750752109 0.1040889939962738 0  0.9296242411226409 0.1041520033606139 0  0.9046110503652111 0.104409422380137 0  0.8777709649694228 0.1053360318797398 0  0.8483859145648608 0.1061007868330701 0  0.8162363822948977 0.1052777104363292 0  0.7893110024210437 0.1060761643971561 0  0.7587949382612539 0.1067265405088633 0  0.7280603867732535 0.1069398153264939 0  0.6947001989413015 0.1075609887579097 0  0.6590363283767549 0.1076715322596598 0  0.6210028614493155 0.1072970410408442 0  1.1953125 0.01353164693413185 0  1.258193991486058 0.01269648635163345 0  1.3201967268638 0.01407907077719561 0  1.383538555392096 0.01434101079053473 0  1.445312500000001 0.01303671693628424 0  1.508925448095738 0.01398525724792267 0  0.9939176689634008 0.1034638089837981 0  1.120967497222226 0.2796788492172345 0  1.572835902117391 0.01424132418857359 0  1.637573277451887 0.01212536916586023 0  1.709730776795181 0.01466855431023635 0  1.005631976950563 0.07074019818158772 0  1.784944696816299 0.01454708406461822 0  0.5805605730631225 0.1101465090472147 0  1.855621181165637 0.01550931272897607 0  0.5366111276616774 0.1096761308243709 0  1.935200147913231 0.01760344159641829 0  1.214922267975168 0.2799787705802257 0  1.31178773425331 0.2792
[...]
<PointData  Scalars="pressure"> 
<DataArray  type="Float64"  Name="pressure"  format="ascii">1.5823125122155060e-01  -1.6549314136740506e-01  -2.1566072644642159e-01  -1.6132652649029347e-01  -4.0482959697023715e-02  0.0000000000000000e+00  0.0000000000000000e+00  1.5823848059942583e-01  1.5230512903420051e-01  1.4647449579668062e-01  1.4073778463439623e-01  1.3509347081051784e-01  1.2954004081516846e-01  1.2407601543326249e-01  1.1869996004571588e-01  1.1341040411008488e-01  1.0820595206546331e-01  1.0308521540736984e-01  9.8046789048697860e-02  9.3089323486123421e-02  8.8211504325683338e-02  8.3411968918767343e-02  7.8689419391561391e-02  7.4042640994561135e-02  6.9470238442791737e-02  6.4971018906435460e-02  6.0543740711976463e-02  5.6187104370675506e-02  5.1899946047527894e-02  4.7681136032422099e-02  4.3529325803739305e-02  3.9443435041784165e-02  3.5422177363604160e-02  3.1464455178010685e-02  2.7569223828723722e-02  2.3735215078578578e-02  1.9961250129843722e-02  1.6246281823553834e-02  1.2589180514265828e-02  8.9887544011300665e-03  5.4440113418722114e-03  1.9537181788651559e-03  -1.4831462215946743e-03  -4.8677570559191178e-03  -8.2011869015958874e-03  -1.1484119917434999e-02  -1.4718371943192352e-02  -1.7904561501754155e-02  -2.1043804172996585e-02  -2.4137380542369243e-02  -2.7186311852722994e-02  -3.0191046808992806e-02  -3.3153641441527743e-02  -3.6074584412637015e-02  -3.8955002834967230e-02  -4.1796037071793246e-02  -4.4598682526687861e-02  -4.7363993968689268e-02  -5.0093161475954016e-02  -5.2787124699340202e-02  -5.5446857616998933e-02  -5.8073321198764988e-02  -6.0668104384910534e-02  -6.3231595387660267e-02  -6.5765075773922169e-02  -6.8269207693702372e-02  -7.0746035846756317e-02  -7.3195987779204150e-02  -7.5619314343356780e-02  -7.8017774864184888e-02  -8.0392961403275398e-02  -8.2744573191459489e-02  -8.5074704207933394e-02  -8.7384084829694272e-02  -8.9673011104261402e-02  -9.1943090759406626e-02  -9.4195235914513467e-02  -9.6430389682221160e-02  -9.8650317024978465e-02  -1.0085512541450360e-01  -1.0304528849622577e-01  -1.0522149596718379e-01  -1.0738723413209003e-01  -1.0954160290504253e-01  -1.1168530611145477e-01  -1.1382025571896857e-01  -1.1594686814710080e-01  -1.1806612357450277e-01  -1.2017916309596413e-01  -1.2228790589792511e-01  -1.2439284055512792e-01  -1.2649422580781619e-01  -1.2859447805557528e-01  -1.3069452728639666e-01  -1.3279554135351690e-01  -1.3489894205178538e-01  -1.3700599693009902e-01  -1.3911840315237722e-01  -1.4123792697963342e-01  -1.4336654755685740e-01  -1.4550639228262557e-01  -1.4765900773295004e-01  -1.4982640439711073e-01  -1.5199837031281757e-01  -1.5437638967881759e-01  -1.5570764432970916e-01  -1.5942316114599209e-01  -1.5730740389647763e-01  -1.6221179118512052e-01  -1.5940719465827313e-01  -2.0313893356404497e-01  -1.8173897395693075e-01  -1.7516243652360869e-01  -1.7037411571563607e-01  -1.6714036784859906e-01  -1.6471311144615594e-01  -1.6289488717363551e-01  -1.6156281201601755e-01  -1.6076315302744845e-01  -1.6056765965452199e-01  -1.6097430473940780e-01  -1.6176748023297155e-01  -1.6214262852331721e-01  -1.6193703852878077e-01  -1.6126591024838507e-01  -1.6021981021271975e-01  -1.5884238044757590e-01  -1.5711850773697034e-01  -1.5503531000292539e-01  -1.5262179886462107e-01  -1.4989528114585235e-01  -1.4685966940612560e-01  -1.4352864955134942e-01  -1.3991327432812922e-01  -1.3602556762088239e-01  -1.3188592255961390e-01  -1.2750726716181690e-01  -1.2290202291858238e-01  -1.1808856596773064e-01  -1.1308583464194459e-01  -1.0790450852671989e-01  -1.0257463771773678e-01  -9.7114612191033747e-02  -9.1540414871869064e-02  -8.5883017509459106e-02  -8.0160901522496705e-02  -7.4403823381241657e-02  -6.8634183677906538e-02  -6.2874782888741348e-02  -5.7157466448514674e-02  -5.1503231425663758e-02  -4.5938194896986195e-02  -3.5061994118748906e-02  -2.9760570717146915e-02  -2.4588237806354905e-02  -1.9579268772573526e-02  -1.4760567762076777e-02  -1.0134328749712738e-02  -5.7272896032103757e-03  -1.5447044936488905e-03  2.3646083777616443e-03  6.0250363740326609e-03  9.4363670067494371e-03  1.2577597786679768e-02  1.5451193994216829e-02  1.8064430122933156e-02  2.0421520704040689e-02  2.2527799582932582e-02  2.4398962555495767e-02  2.6035826069921185e-02  2.7452971238741818e-02  2.8681219193157175e-02  2.9709337918346630e-02  3.0567702598817234e-02  3.1270082845117501e-02  3.1824652132551041e-02  3.2252977989867405e-02  3.2559587377935614e-02  3.2775504831878050e-02  3.2891477102930382e-02  3.2928395458496275e-02  3.2891148159302164e-02  3.2787498716049669e-02  3.2626782770535281e-02  3.2418122483381502e-02  3.2165509263124663e-02  3.1869623468918591e-02  3.1537470477110099e-02  3.1169636179587495e-02  3.0768685076022213e-02  3.0335562521212459e-02  2.9870546612555678e-02  2.9373874144803851e-02  2.8845332563421072e-02  2.8283570025016868e-02  2.7688756426830909e-02  2.7058302035069478e-02  2.6390802893337888e-02  2.5687259284640693e-02  2.4942813937837795e-02  2.4155464310480532e-02  2.3329511623473218e-02  2.2455422076239129e-02  2.1540213004828980e-02  2.0573432906848453e-02  1.9563866544267148e-02  1.8503772911426512e-02  1.7389359550451566e-02  1.6231112100504649e-02  1.5014893860563696e-02  1.3752032411646936e-02  1.2436474131202762e-02  1.1067216500496876e-02  9.6442747477830468e-03  8.1698106117389317e-03  6.6469761471048255e-03  5.0663833533316745e-03  3.4457474329549313e-03  1.7687842813823781e-03  0.0000000000000000e+00  0.0000000000000000e+00  0.0000000000000000e+00  0.0000000000000000e+00  0.0000000000000000e+00  0.0000000000000000e+00  0.0000000000000000e+00  0.0000000000000000e+00  0.0000000000000000e+00  1.9218920087669439e-03  3.7159466185394674e-03  5.4823944609281201e-03  7.1958242672712641e-03  8.8600038974926652e-03  1.0473671954482960e-02  1.2035909830549887e-02  1.3544999551923492e-02  1.4998082241926079e-02  1.6392954291677347e-02  1.7725609025287973e-02  1.8993568438305783e-02  2.0191763743342486e-02  2.1317196403814905e-02  2.2365020741268091e-02  2.3328672859923367e-02  2.4207738970130309e-02  2.4991104020083872e-02  2.5674100974300083e-02  2.6250574821582134e-02  2.6713671010886897e-02  2.7056721082919385e-02  2.7274075548431188e-02  2.7355013729860600e-02  2.7297759568513009e-02  2.7090756781057775e-02  2.6731727871717060e-02  2.6209337811900092e-02  2.5518485765134720e-02  2.4656507655063525e-02  2.3612738037362836e-02  2.2381714358437169e-02  2.0978299926025675e-02  1.9388186385655325e-02  1.7585518036847669e-02  1.5610584425574009e-02  1.3439860363125894e-02  1.1074523975011377e-02  8.5159018421914236e-03  5.7717276014213597e-03  2.8331293618761148e-03  -2.8613949308867463e-04  -3.5943326701711989e-03  -7.0808727952222251e-03  -1.0756806155981480e-02  -1.4606634271061073e-02  -1.8631306249286106e-02  -2.2822088027169389e-02  -2.7181893745216096e-02  -3.1696939197116865e-02  -3.6364474067970165e-02  -4.1172993837713591e-02  -4.6109275524151935e-02  -5.1164581007974802e-02  -5.6323172891214593e-02  -6.1561717965945950e-02  -6.6821950320567980e-02  -7.2148661126704219e-02  -7.7458276453270039e-02  -8.2691733661731770e-02  -8.7852466855497316e-02  -9.2869595291687354e-02  -9.7723768079220827e-02  -1.0230962950806419e-01  -1.0662088072019271e-01  -1.1054844173600298e-01  -1.1408043930239219e-01  -1.1710681880282613e-01  -1.1963174604048685e-01  -1.2152333225871034e-01  -1.2279668627400035e-01  -1.2337999447734967e-01  -1.2314474549045112e-01  -1.2226159386980348e-01  -1.2059528117854826e-01  -1.1815321560716392e-01  -1.1505245593560263e-01  -1.1131627411917226e-01  -1.0707061194557932e-01  -1.0238496594791346e-01  -9.7259405096228158e-02  -9.1830929489170474e-02  -8.6139124506299583e-02  -8.0277292644783393e-02  -7.4250036087152818e-02  -6.8085667767693703e-02  -6.1836994994641944e-02  -5.5517249421885954e-02  -4.9137661455753844e-02  -4.2722036189924900e-02  -3.6275546451801768e-02  -2.9816666204930665e-02  -2.3348354565126652e-02  -1.6873225019318844e-02  -1.0402798451938873e-02  -3.9383280143669847e-03  2.5189530265988464e-03  8.9655440090433049e-03  1.5398327214054092e-02  2.1816134299661748e-02  2.8218441444930638e-02  3.4603708284175388e-02  4.0971743601372776e-02  4.7320930686674381e-02  5.3651624106204478e-02  5.9963095795578417e-02  6.6255072690476771e-02  7.2527458480745030e-02  7.8779943635260363e-02  8.5012477586745849e-02  9.1225025208142768e-02  9.7417489678176442e-02  1.0358984446257398e-01  1.0974208971527351e-01  1.1587423669985406e-01  1.2198626392655848e-01  1.2807824221180678e-01  1.3415019223129532e-01  1.4020214288788915e-01  1.4623414849354494e-01  1.5224624397412809e-01  1.5823845266475642e-01  1.5823815216289819e-01  1.5823741830980143e-01  1.5823626636856206e-01  1.5823486715285123e-01  1.5823346649345726e-01  1.5823231214467148e-01  1.5823157340144223e-01  1.5823127397859915e-01  -1.5346502740746279e-01  -1.8621027061774056e-01  -1.5810741742965234e-01  -1.4446898783099965e-01  -1.3394926685861674e-01  -1.2341785053815170e-01  -1.1293043163095073e-01  -1.0212389159226869e-01  -9.0878409590300496e-02  -8.1813473589169378e-02  -7.1815619614073317e-02  -6.1967493043792919e-02  -5.1462809476906984e-02  -4.0384118387133447e-02  -2.8691614815754943e-02  -1.4157880931429598e-01  -1.2508002746263108e-01  -1.0537960874340453e-01  -8.2961200482154066e-02  -6.0287431387954581e-02  -3.7802112642978884e-02  -1.7072025705495406e-01  -1.2157720758117745e-01  -1.7560386365060125e-02  -5.2916745338528763e-04  1.3601633976882070e-02  -1.6661646857120826e-01  2.3396265779310119e-02  -1.6355920570617643e-02  2.8814749911031813e-02  -3.0233544290544649e-03  3.1817062806690291e-02  -1.1175063895690801e-01  -9.4663416223062763e-02  3.2789757797630617e-02  -7.4368972669136599e-02  1.0789212135960865e-02  -4.8235126959114992e-02  3.2436705068501374e-02  2.5650755065692796e-02  -1.5904609879005779e-01  3.1283974844131375e-02  -2.4772255275020222e-02  -1.2224042750360216e-01  4.1054193609555624e-02  2.9572955086753516e-02  -1.8851030413390428e-03  5.8552346749939553e-02  7.0065183752084119e-03  2.7309602518836216e-02  1.4622593263790607e-02  7.5843636225701810e-02  -1.1630662356343274e-01  2.4563714377389165e-02  2.0169912890714931e-02  -1.0461648775211629e-01  2.4139405140207258e-02  2.1037723137760967e-02  -8.8979522833919536e-02  9.6043936243407624e-02  1.1006108620128401e-01  -1.2574121473061221e-02  1.7916448285147289e-02  1.4210423160875875e-02  2.6397892691454591e-02  -7.1373230920688133e-02  2.7208851890909994e-02  -1.5089139008516222e-01  -4.6371330125577426e-02  2.6382079754946601e-02  1.2751290741692758e-01  -2.6620777859359197e-02  1.0327672813538009e-02  2.3701042854086897e-02  -7.0498165671976009e-03  1.8774360077206988e-02  2.0686424996323161e-02  5.0486913433762888e-02  1.7000935885433666e-02  6.9447557527333448e-02  8.8224748065461697e-02  1.2746684868554395e-02  1.1982457924287858e-01  1.6101233321551489e-03  1.5265491152694013e-01  -1.6176143047791694e-01  8.1242859743620981e-03  5.7347559971344724e-03  1.3762716199875807e-01  -1.7316836890976048e-01  -1.6110782435092216e-01  -1.1776292232388792e-01  -5.8584391907277066e-02  5.2484997808369804e-03  3.1078930151274532e-02  1.3796716396980871e-01  -3.8886561162188159e-02  -6.3474129002285884e-02  -8.4643889956788704e-02  -1.0380409354905978e-01  8.6106215160272837e-02  2.7094195974073178e-02  6.6932816934698158e-02  1.0046622687861759e-01  2.5245287388152002e-02  2.2886327856182807e-02  4.9230535334511910e-02  2.5932018735645348e-02  2.8522850155327142e-02  3.3692527584263797e-02  3.0494291558512899e-02  3.1942784486708363e-02  3.2743963975207180e-02  3.2532388969416022e-02  -2.7542319055553686e-02  1.8101990621263667e-02  3.0622565753587926e-02  2.6440660489902710e-02  3.7155956873426580e-03  1.9114336249694375e-02  7.3517234424177258e-03  -8.1726446120399948e-03  1.3425310933570563e-03  -1.0206829622978884e-02  -2.2143589353198372e-02  1.5299471261088515e-01  -3.4304848682449755e-02  -4.5993144170868888e-02  -5.6776062646741926e-02  -6.7130768734148152e-02  -7.6894395766032270e-02  -8.6156036834111480e-02  -1.4799325085366472e-01  -9.7585335878764931e-02  -1.0851842110819983e-01  -1.1919630486587836e-01  -1.3389306321055910e-01  -1.2980523890381776e-01  -9.4664307440301507e-02  -1.1512861868968317e-01  -7.2597867662367116e-02  -4.9035159639628123e-02  -1.4029337939711423e-01  -1.5983421288374761e-01  1.6888719038567425e-03  1.5249811165029503e-01  4.5280396259770378e-03  -1.6153832515150576e-01  1.5324663232167421e-01  1.3684693673021724e-03  1.4914246448388810e-01  -1.6150598749982134e-01  -1.6116722512085047e-01  -1.6070696979857257e-01  -1.6120830355138932e-01  -1.6073044900660946e-01  -1.6156014964153259e-01  -1.6090102562315534e-01  -1.6201527200357452e-01  -1.6118550274472498e-01  -1.6233739333541194e-01  -1.6138886273125921e-01  -1.6226375681020816e-01  -1.6111987475981518e-01  -1.6163099081861326e-01  -1.6034958255834206e-01  -1.6054374243095626e-01  -1.5908659427571642e-01  -1.5906118732341903e-01  -1.5743411812047173e-01  -1.5701334721759586e-01  -1.5508250006697724e-01  -1.5869537081550389e-01  -1.5560553410428732e-01  -1.5286560077276129e-01  -1.5596616379968919e-01  -1.5792092294769947e-01  -1.5315947537311642e-01  -1.5027722274198752e-01  -1.5049436661754828e-01  -1.4724672400214239e-01  -1.4734748490220345e-01  -1.4377898302137512e-01  -1.4379794031804563e-01  -1.4015707361741742e-01  -1.3984272605483428e-01  -1.3547133128568223e-01  -1.3526452686545309e-01  -1.3107202827386949e-01  -1.3044289518762164e-01  -1.2609029236732916e-01  -1.2522247789901800e-01  -1.2078281130162326e-01  -1.1968965671870406e-01  -1.1521131953135481e-01  -1.1385301818584674e-01  -1.0940614822594101e-01  -1.0774686769865785e-01  -1.0338294062996690e-01  -1.0143630011413754e-01  -9.7221765870143431e-02  -9.4935882908229588e-02  -9.0960892685522182e-02  -8.8217665467372572e-02  -1.5410797377044444e-01  -1.5588088011383419e-01  -8.4617788261749996e-02  -8.1449950660900425e-02  -7.8274280513802988e-02  -7.5110964091557347e-02  -7.2025337819103599e-02  -6.8511527304921799e-02  -6.5877094525855481e-02  -6.2037371831979965e-02  -1.4916115513177330e-01  -5.9942814621419399e-02  -5.5680444159054931e-02  -5.3929007544571458e-02  -4.9458804280533258e-02  -4.8322008040334444e-02  -4.3520070913268163e-02  -1.5126734694505126e-01  -1.5317957710348551e-01  -1.6276393474495696e-01  -4.2863058228053176e-02  -3.7779898052885827e-02  -3.7682362352344227e-02  -3.2325088680753615e-02  -3.2760587286143880e-02  -2.7186799132872683e-02  -1.5921212982932367e-01  -2.8115738585936859e-02  -2.2332796807360670e-02  -1.3944639454249338e-01  -2.3733302449912820e-02  -1.7809758937387558e-02  -1.9644352989783554e-02  -1.3609634187692303e-02  -1.5766033539999905e-02  -9.7227034558219749e-03  -1.5971512683421707e-01  -1.2598309238226724e-01  -1.2222548702334773e-02  -6.1494965817296245e-03  -1.4748131024527114e-01  -1.4866788472459516e-01  -1.4592203306836296e-01  -1.1008255266220182e-01  -8.8703235441292549e-03  -2.7290271102725235e-03  -5.8611478514353438e-03  3.3782822454588853e-04  -3.0025829873351426e-03  2.9899456409137586e-03  -3.8551658397367940e-02  1.0028483102174807e-04  -2.1658969135491719e-02  -5.7891608068734307e-02  -3.5530842387829773e-04  5.4196588160552494e-03  8.7637256897275095e-03  1.1035657260006066e-02  7.6921796672212031e-03  1.3083418988520255e-02  9.8352728384279841e-03  1.4993795069531189e-02  1.1768487720295843e-02  1.6654782703929730e-02  1.3538464405111994e-02  1.8185648561314001e-02  1.5204673739499724e-02  1.9529570199651139e-02  1.6648331994008923e-02  2.0757626102800641e-02  1.8092442061697148e-02  2.1979499804909625e-02  1.9381343172024917e-02  2.2981164928873553e-02  2.0596322353940922e-02  2.3850913831083516e-02  2.1567106814829172e-02  2.4643091150690397e-02  -7.8000914632248258e-02  -9.3022729458592288e-02  2.2561167555649530e-02  2.5310971429525056e-02  2.3503895453804290e-02  2.5947039727698438e-02  -1.4660000693689695e-01  -1.1169576722065394e-01  2.4343134869704731e-02  2.6471387086661229e-02  -1.2889744627095312e-01  -7.5656544776689233e-02  -1.4278485089308057e-01  -1.4354219323215195e-01  -1.5018302960821597e-01  -1.4392650332569126e-01  -1.4946604291821336e-01  -1.4358211635655577e-01  -1.4940830361723473e-01  -1.4268774486017563e-01  -1.4674075831207151e-01  -1.4078488890703120e-01  -1.4492903874413454e-01  -1.3848734634726370e-01  -1.4109791109711028e-01  -1.3553685064821208e-01  -1.3745524060122560e-01  -1.3239978732591964e-01  -1.3369011592148886e-01  -1.2899419391371467e-01  -1.2986458338498741e-01  -1.2550303205552421e-01  -1.2599964253990389e-01  -1.2191225049659229e-01  -1.2214860022746189e-01  -1.1829389598067910e-01  -1.1830692269230215e-01  -1.1469780443867768e-01  -1.1415753730975210e-01  -1.1081896689896002e-01  -1.1100501396195030e-01  -1.0739386651951097e-01  -1.0713195267647042e-01  -1.0378363414417648e-01  -1.0353779487176669e-01  -1.0021710055955517e-01  -9.9712165652217050e-02  -9.6589270282628717e-02  -1.3028457674457675e-01  -1.0711520970063861e-01  -1.2098202675426277e-01  -9.6019429971905740e-02  -9.2883095616132658e-02  -9.3216932953328863e-02  -8.9682786764211819e-02  -8.9136455342118448e-02  -8.6067340613823179e-02  -8.5345069488215158e-02  -8.2396754865006722e-02  -8.1569213088235323e-02  -7.8669257003310566e-02  -8.5878673958720439e-02  -1.5457273514457259e-01  -1.4647274782466174e-01  -7.7854483656555590e-02  -7.4885044161484907e-02  -7.5658924499408489e-02  -7.1880005966698121e-02  -7.1077031888489947e-02  -6.8120018094534482e-02  -6.7212579707869993e-02  -6.4334960115876472e-02  -1.3836193856280671e-01  -6.8661145439474547e-02  -6.3371570691258303e-02  -6.0564246227993029e-02  -1.3000405103184012e-01  -5.9644760850712387e-02  -5.6738002296173977e-02  -5.7931021079646108e-02  -5.3783498580427656e-02  -5.2802773275220725e-02  -4.9735996617272439e-02  -5.0675947147871547e-02  -4.6629902153400189e-02  -4.5706315232672934e-02  -4.2592739350434831e-02  -4.1661326991580032e-02  -3.8462476911603580e-02  -3.9419431486457324e-02  -3.5292056332329458e-02  -3.4306349564704221e-02  -3.1160453793712503e-02  -3.0214307684322032e-02  -2.7046892401824063e-02  -1.3849670872040404e-01  -1.0680506659971536e-01  -1.2178293160507309e-01  -2.6195312321653470e-02  -2.2965658249089919e-02  -2.3829721460285145e-02  -1.9594845415821970e-02  -1.8736590056039410e-02  -1.5366113265260734e-02  -2.0457776114068630e-02  2.5009454283810576e-02  2.6908483216674408e-02  2.5616319838512477e-02  2.7278160895556691e-02  2.6157870384168842e-02  2.7576258377203983e-02  -8.8445432260635018e-02  -4.7898374640300660e-02  -1.6258445813511557e-01  -1.4476467671709434e-02  -1.1172942215211163e-02  -9.9026506261545633e-02  2.2587934809459181e-02  2.6720424674658402e-02  1.3847484702979225e-02  2.6608126510080442e-02  2.7793711839445272e-02  2.8849431548119572e-02  2.8846661468364954e-02  2.7936670097410039e-02  2.8791541464585624e-02  2.8012368496386813e-02  2.8677543992531220e-02  2.8005668978034408e-02  2.8496726103417136e-02  2.7926713184082550e-02  2.8257829825984317e-02  2.7764013058709507e-02  2.7947386299921002e-02  2.7525181325731306e-02  2.7577491117538492e-02  2.7213575195884715e-02  2.7146149963974103e-02  2.6832561878736338e-02  2.6655658639742438e-02  2.6371564615007885e-02  2.6090854489474759e-02  2.5828909031608224e-02  2.5474653846442673e-02  2.5209342976679119e-02  2.4771642510816871e-02  2.4529659155837859e-02  2.4028404497744384e-02  2.3755777316328941e-02  2.3199537069091562e-02  2.2926620764650758e-02  2.2323136145441028e-02  2.8493439462518835e-02  -3.6316323588976816e-02  -7.0205264054879549e-02  -1.0161384515966831e-02  -6.8705161297683195e-03  -7.8730414323017698e-03  -3.4191139096363021e-03  -4.4660162268191118e-03  9.1433483239067092e-05  1.0179787359586546e-03  4.5483241715548193e-03  5.5944801450793415e-03  9.0973451396380699e-03  8.1485978769201984e-03  1.2685800746570134e-02  1.3492340841595543e-02  1.7187721392076312e-02  1.7980179740315256e-