<?xml version="1.0"?>
<VTKFile type="UnstructuredGrid"  version="0.1"  >
<UnstructuredGrid>
<Piece  NumberOfPoints="2945" NumberOfCells="5525">
<Points>
<DataArray  type="Float64"  NumberOfComponents="3"  format="ascii">0 0.1 0  0.95 0.1 0  1 0.1 0  1 0 0  1.5 0 0  3 0 0  3 0.3 0  0 0.3 0  0.0197424558707114 0.1 0  0.03915669042224804 0.1 0  0.05824816022699029 0.1 0  0.07702223050332387 0.1 0  0.09548417327144595 0.1 0  0.1136391897583987 0.1 0  0.1314923700144587 0.1 0  0.1490487330862866 0.1 0  0.1663132263225292 0.1 0  0.1832906857273058 0.1 0  0.1999858946008978 0.1 0  0.216403545770297 0.1 0  0.2325482404045023 0.1 0  0.2484245348165176 0.1 0  0.2640368740372501 0.1 0  0.2793896589642241 0.1 0  0.2944872056237027 0.1 0  0.3093337469555254 0.1 0  0.3239334613687816 0.1 0  0.3382904528528069 0.1 0  0.3524087553122972 0.1 0  0.3662923366391824 0.1 0  0.3799451014768399 0.1 0  0.393370886920506 0.1 0  0.4065734648871676 0.1 0  0.419556546320114 0.1 0  0.4323237821343415 0.1 0  0.4448787573056132 0.1 0  0.4572250047274954 0.1 0  0.4693659926332938 0.1 0  0.4813051343276231 0.1 0  0.4930457849308193 0.1 0  0.5045912455271677 0.1 0  0.5159447600209797 0.1 0  0.5271095174127136 0.1 0  0.5380886618453393 0.1 0  0.5488852725463512 0.1 0  0.5595023868312478 0.1 0  0.5699429904313016 0.1 0  0.5802100167387366 0.1 0  0.5903063508274641 0.1 0  0.6002348329443006 0.1 0  0.6099982499579832 0.1 0  0.6195993483501782 0.1 0  0.6290408246013842 0.1 0  0.6383253354321616 0.1 0  0.6474554910757137 0.1 0  0.6564338522440513 0.1 0  0.6652629482939147 0.1 0  0.6739452579188948 0.1 0  0.6824832240165607 0.1 0  0.6908792415022103 0.1 0  0.6991356755989045 0.1 0  0.7072548438546967 0.1 0  0.7152390281534421 0.1 0  0.7230904746196039 0.1 0  0.7308113906759266 0.1 0  0.7384039435269326 0.1 0  0.7458702676581656 0.1 0  0.7532124631720397 0.1 0  0.7604325921167397 0.1 0  0.7675326856666862 0.1 0  0.7745147374421916 0.1 0  0.7813807123989068 0.1 0  0.7881325374362798 0.1 0  0.7947721131625659 0.1 0  0.8013013031866276 0.1 0  0.8077219449067021 0.1 0  0.8140358419942376 0.1 0  0.8202447685401882 0.1 0  0.8263504700910924 0.1 0  0.8323546643163114 0.1 0  0.8382590362474568 0.1 0  0.8440652473522128 0.1 0  0.8497749272799842 0.1 0  0.8553896837646281 0.1 0  0.8609110933285474 0.1 0  0.866340708855119 0.1 0  0.8716800550492284 0.1 0  0.8769306339052932 0.1 0  0.8820939206038667 0.1 0  0.8871713655604893 0.1 0  0.8921643975475726 0.1 0  0.8970744196575535 0.1 0  0.9019028106970642 0.1 0  0.9066509291259979 0.1 0  0.9113201098984042 0.1 0  0.9159116634553873 0.1 0  0.9204268818729691 0.1 0  0.9248670319440222 0.1 0  0.9292333656649013 0.1 0  0.9335271075812669 0.1 0  0.9377494640511216 0.1 0  0.941901623463222 0.1 0  0.9459847526686701 0.1 0  0.9538461538461205 0.1 0  0.9576923076922409 0.1 0  0.9615384615384381 0.1 0  0.9653846153846337 0.1 0  0.9692307692307542 0.1 0  0.9730769230768747 0.1 0  0.9769230769229952 0.1 0  0.9807692307691157 0.1 0  0.9846153846152361 0.1 0  0.9884615384614317 0.1 0  0.9923076923076356 0.1 0  0.9961538461538395 0.1 0  1 0.09591793123533533 0  1 0.09133596463859224 0  1 0.08619288104391448 0  1 0.08041996484521211 0  1 0.07394008421771697 0  1 0.06666666567302955 0  1 0.05850252932209174 0  1 0.04933859630113544 0  1 0.03905242821848202 0  1 0.02750659386753798 0  1 0.01454683679239736 0  1.015625 0 0  1.03125 0 0  1.046875 0 0  1.0625 0 0  1.078125 0 0  1.09375 0 0  1.109375 0 0  1.125 0 0  1.140625 0 0  1.15625 0 0  1.171875 0 0  1.1875 0 0  1.203125 0 0  1.21875 0 0  1.234375 0 0  1.25 0 0  1.265625 0 0  1.28125 0 0  1.296875 0 0  1.3125 0 0  1.328125 0 0  1.34375 0 0  1.359375 0 0  1.375 0 0  1.390625 0 0  1.40625 0 0  1.421875 0 0  1.4375 0 0  1.453125 0 0  1.46875 0 0  1.484375 0 0  1.515920751924515 0 0  1.531989369316721 0 0  1.54820720925872 0 0  1.564575665560501 0 0  1.581096138674279 0 0  1.597770029901263 0 0  1.614598783332311 0 0  1.631583831055205 0 0  1.64872661129721 0 0  1.666028606716533 0 0  1.683491276608443 0 0  1.701116134125304 0 0  1.718904673324128 0 0  1.736858414799339 0 0  1.754978895814663 0 0  1.773267661782904 0 0  1.791726281103402 0 0  1.810356325314689 0 0  1.8291593848892 0 0  1.848137076690385 0 0  1.867291007717254 0 0  1.886622833871288 0 0  1.90613418642363 0 0  1.925826753299799 0 0  1.945702199101513 0 0  1.96576223584749 0 0  1.986008569283268 0 0  2.006442931928877 0 0  2.02706707547783 0 0  2.047882750887917 0 0  2.06889175187935 0 0  2.090095860038271 0 0  2.111496891648636 0 0  2.133096679109554 0 0  2.154897066851056 0 0  2.176899916687499 0 0  2.199107102752146 0 0  2.22152053937028 0 0  2.244142122958061 0 0  2.266973806444078 0 0  2.290017523268154 0 0  2.313275249499252 0 0  2.336748971745516 0 0  2.360440702338606 0 0  2.384352453384031 0 0  2.408486280477412 0 0  2.432844240041185 0 0  2.457428414757088 0 0  2.482240901796653 0 0  2.507283830121838 0 0  2.532559332080812 0 0  2.558069568787417 0 0  2.583816724966441 0 0  2.60980299606584 0 0  2.636030600971886 0 0  2.662501790984011 0 0  2.689218818279327 0 0  2.716183964547616 0 0  2.743399548861297 0 0  2.77086788244719 0 0  2.798591312896326 0 0  2.826572223178268 0 0  2.854812990138617 0 0  2.883316031690714 0 0  2.912083780657189 0 0  2.941118704633482 0 0  2.970423276998917 0 0  3 0.02999999999994495 0  3 0.05999999999987042 0  3 0.089999999999783 0  3 0.119999999999701 0  3 0.149999999999619 0  3 0.179999999999692 0  3 0.2099999999997737 0  3 0.2399999999998511 0  3 0.2699999999999185 0  2.970138294777171 0.3 0  2.940375666438236 0.3 0  2.910711782853056 0.3 0  2.881146331305122 0.3 0  2.851678975030285 0.3 0  2.822309388626621 0.3 0  2.793037250095074 0.3 0  2.76386223529133 0.3 0  2.734784017903872 0.3 0  2.705802289276642 0.3 0  2.676916713794697 0.3 0  2.648126987654635 0.3 0  2.619432780406184 0.3 0  2.590833779385199 0.3 0  2.562329669847737 0.3 0  2.533920134950189 0.3 0  2.505604855727852 0.3 0  2.477383539822502 0.3 0  2.449255847639465 0.3 0  2.421221492569094 0.3 0  2.393280152486815 0.3 0  2.36543151914496 0.3 0  2.337675285481809 0.3 0  2.310011142385583 0.3 0  2.282438797441587 0.3 0  2.254957931061538 0.3 0  2.227568248063605 0.3 0  2.200269436651085 0.3 0  2.173061204949961 0.3 0  2.145943251515011 0.3 0  2.118915272469994 0.3 0  2.091976978084957 0.3 0  2.065128060700849 0.3 0  2.038368218849433 0.3 0  2.01169717777258 0.3 0  1.985114624111908 0.3 0  1.958620267850966 0.3 0  1.93221382054972 0.3 0  1.905894991850698 0.3 0  1.879663489459713 0.3 0  1.853519019126419 0.3 0  1.827461291053897 0.3 0  1.801490031354372 0.3 0  1.775604937580312 0.3 0  1.74980572560258 0.3 0  1.724092118631866 0.3 0  1.698463829173586 0.3 0  1.672920575782554 0.3 0  1.647462076974085 0.3 0  1.622088043536933 0.3 0  1.5967981978949 0.3 0  1.571592267767068 0.3 0  1.546469970305736 0.3 0  1.521431023814044 0.3 0  1.496475156230927 0.3 0  1.471602093687753 0.3 0  1.446811560490646 0.3 0  1.422103279101731 0.3 0  1.397476971708191 0.3 0  1.37293238939876 0.3 0  1.348469231419202 0.3 0  1.324087248732772 0.3 0  1.299786165921677 0.3 0  1.275565710847046 0.3 0  1.251425617644257 0.3 0  1.227365618676339 0.3 0  1.203385446174014 0.3 0  1.179484853067473 0.3 0  1.155663548773374 0.3 0  1.131921292279077 0.3 0  1.108257802159295 0.3 0  1.084672829009693 0.3 0  1.061166115303374 0.3 0  1.037737392995421 0.3 0  1.01438640299116 0.3 0  0.991112899770314 0.3 0  0.9679166155523955 0.3 0  0.944797284182564 0.3 0  0.921754678526042 0.3 0  0.8987885143602501 0.3 0  0.8758985548820624 0.3 0  0.8530845484099929 0.3 0  0.8303462351786988 0.3 0  0.8076833651172373 0.3 0  0.7850956864865304 0.3 0  0.7625829601354557 0.3 0  0.7401449314598274 0.3 0  0.717781337993959 0.3 0  0.6954919649675473 0.3 0  0.6732765357561226 0.3 0  0.6511348120768439 0.3 0  0.6290665642016573 0.3 0  0.6070715355430467 0.3 0  0.5851494825775325 0.3 0  0.5633001690203812 0.3 0  0.5415233562273221 0.3 0  0.5198187909431873 0.3 0  0.4981862401387795 0.3 0  0.4766254686134248 0.3 0  0.4551362360485234 0.3 0  0.4337182975262159 0.3 0  0.4123714223228037 0.3 0  0.3910953802377493 0.3 0  0.3698899313205595 0.3 0  0.3487548463710963 0.3 0  0.3276898864081783 0.3 0  0.3066948129116018 0.3 0  0.2857694003037476 0.3 0  0.2649134227095047 0.3 0  0.2441266417321288 0.3 0  0.2234088223399122 0.3 0  0.2027597568977288 0.3 0  0.1821792020676698 0.3 0  0.1616669305402443 0.3 0  0.1412227158799362 0.3 0  0.12084633013886 0.3 0  0.1005375673448281 0.3 0  0.08029618164595353 0.3 0  0.06012194778526769 0.3 0  0.04001466495039718 0.3 0  0.01997408913631205 0.3 0  0 0.2800000000000553 0  0 0.2600000000001105 0  0 0.2400000000001658 0  0 0.2200000000002211 0  0 0.2000000000002764 0  0 0.1800000000002244 0  0 0.1600000000001691 0  0 0.140000000000115 0  0 0.1200000000000564 0  1.133778471000506 0.01219539743990768 0  1.003741919047894 0.09354664821474232 0  0.9559421147150347 0.1035858189992458 0  0.9313792160389045 0.1037365237938103 0  0.9788461538460573 0.1033060829993555 0  0.9090102438250753 0.1037269304984056 0  0.8846304212778655 0.1043349840723655 0  0.8581503885465881 0.104741932962923 0  0.8286416220145676 0.1052762843984476 0  0.7982741772533339 0.1053575624517407 0  0.7708789559342691 0.1060290465840416 0  0.741870349714261 0.1078220590984258 0  0.7112469360040695 0.10685702926368 0  0.6783901541417233 0.1079959711853378 0  0.642884733623195 0.1075561996086514 0  0.6056235042367955 0.1085956039602543 0  0.5647007593786924 0.1083187281660325 0  1.1953125 0.01353164693413185 0  1.258148737344733 0.01268350115427042 0  1.320087046516829 0.01426312402966312 0  1.383495130751951 0.01432665475473204 0  1.4453125 0.01315663539200989 0  1.50886768312388 0.01395488397722681 0  0.9942307692307371 0.103330866937657 0  1.119309781943483 0.2802014914557878 0  1.572831235329714 0.01707210522554785 0  1.637611634353954 0.01209340368483431 0  1.709661292005932 0.0146870244871893 0  1.006561890631532 0.07068055446055937 0  1.784793444007901 0.01499371444634687 0  1.855459587353174 0.0
[...]
<PointData  Scalars="pressure"> 
<DataArray  type="Float64"  Name="pressure"  format="ascii">8.9178033913837429e-01  5.1652238375708948e-01  3.1611127292625779e-01  4.9590834119949645e-01  5.8472760336339080e-01  0.0000000000000000e+00  0.0000000000000000e+00  8.9186498049374385e-01  8.8585769763746514e-01  8.8003268378632749e-01  8.7430342942091799e-01  8.6866823608452315e-01  8.6312527277261319e-01  8.5767304022324276e-01  8.5230976497476141e-01  8.4703378411954466e-01  8.4184365159314634e-01  8.3673733237205439e-01  8.3171338863128152e-01  8.2677031802996748e-01  8.2190624494113773e-01  8.1711973043357267e-01  8.1240889423891027e-01  8.0777228702966153e-01  8.0320794151873176e-01  7.9871451892923973e-01  7.9428999723104254e-01  7.8993302802719845e-01  7.8564128772459829e-01  7.8141362078682641e-01  7.7724880995686285e-01  7.7314364791530699e-01  7.6909723430299870e-01  7.6510755507596928e-01  7.6117335817645349e-01  7.5729143133448040e-01  7.5346203239825582e-01  7.4968085717351318e-01  7.4594870418590764e-01  7.4226203167144655e-01  7.3861882908074072e-01  7.3501758284966812e-01  7.3145711500281596e-01  7.2793478189634708e-01  7.2444825517602540e-01  7.2099676861090345e-01  7.1757729027157058e-01  7.1418900479129166e-01  7.1082886743912765e-01  7.0749529758474961e-01  7.0418714578442898e-01  7.0090180275283565e-01  6.9763681852501269e-01  6.9439168442315968e-01  6.9116323138548907e-01  6.8795016405134113e-01  6.8475097005617480e-01  6.8156003992117653e-01  6.7838444881921034e-01  6.7520826697323011e-01  6.7204383282219471e-01  6.6888200600482850e-01  6.6572177461689974e-01  6.6256049985624121e-01  6.5939825898313764e-01  6.5622538860855073e-01  6.5305903252521014e-01  6.4987705555498987e-01  6.4668192077842346e-01  6.4348028448447303e-01  6.4025881871935397e-01  6.3703121161312548e-01  6.3377641711264221e-01  6.3050242750605423e-01  6.2720607586882138e-01  6.2388466515738317e-01  6.2053676013923342e-01  6.1715594666231710e-01  6.1374394519853070e-01  6.1029669815184662e-01  6.0681765618946681e-01  6.0329524203775464e-01  5.9972587826123236e-01  5.9611604124003026e-01  5.9245665141563753e-01  5.8874057925885326e-01  5.8498141515625623e-01  5.8116262662628215e-01  5.7727745676099007e-01  5.7332749900118962e-01  5.6931686862696929e-01  5.6523826324748150e-01  5.6108285173954542e-01  5.5685637563818557e-01  5.5255092393974858e-01  5.4816867073226694e-01  5.4368501959336457e-01  5.3914216302310358e-01  5.3452651510106786e-01  5.2982333641637103e-01  5.2505035273085732e-01  5.2036379271282651e-01  5.1458870933426748e-01  5.0749732448996820e-01  5.0283183714203350e-01  5.0289031694533115e-01  5.0501792791898537e-01  5.0808565868042421e-01  5.1086188252180242e-01  5.1227919790066112e-01  5.1127538226528790e-01  5.0678868399216348e-01  4.9802257992511056e-01  4.7929323513974548e-01  4.8317488781815704e-01  3.5483750835312849e-01  4.1610875331381320e-01  4.3618832136597707e-01  4.5070204941649872e-01  4.6091484344994993e-01  4.6965161022939395e-01  4.7787789199548503e-01  4.8557579955851954e-01  4.9228221754080564e-01  4.9670774428983111e-01  4.9730423847887162e-01  4.9422200668477867e-01  4.9471643487353256e-01  4.9866172970771488e-01  5.0693805282297788e-01  5.2068461459932369e-01  5.4049792032332589e-01  5.6615213819899912e-01  5.9652701437003797e-01  6.2872668621550831e-01  6.5974772095989898e-01  6.8717292022976828e-01  7.0920732854813973e-01  7.2501599113636372e-01  7.3461801250241709e-01  7.3856311525924356e-01  7.3765592782566836e-01  7.3296736918302263e-01  7.2539458194949913e-01  7.1591200919788067e-01  7.0524404792700401e-01  6.9374107920229366e-01  6.8230568609844311e-01  6.7080505458862583e-01  6.5974450743155832e-01  6.4913786643946358e-01  6.3913393937655405e-01  6.2953165000268485e-01  6.2041911446358811e-01  6.1158517157563830e-01  6.0287387473467025e-01  5.9401245018874194e-01  5.7453922786838008e-01  5.6334979183657896e-01  5.5104268220136143e-01  5.3792284409781177e-01  5.2432846016567758e-01  5.1149547998537481e-01  5.0009755304184345e-01  4.9162968545141122e-01  4.8673164376006139e-01  4.8571094150166177e-01  4.8828566041385685e-01  4.9363850849355179e-01  5.0063986398056248e-01  5.0784925948227255e-01  5.1403904864818362e-01  5.1816492211572462e-01  5.1962374705968661e-01  5.1803491050043038e-01  5.1357511834161773e-01  5.0671978691087605e-01  4.9753817162662117e-01  4.8680207905020345e-01  4.7487848037496122e-01  4.6197556308028226e-01  4.4834994934633443e-01  4.3388318800595294e-01  4.1909319633716596e-01  4.0349068620025086e-01  3.8755624851686032e-01  3.7158864400411973e-01  3.5593605568011732e-01  3.4128637613374901e-01  3.2827637999416859e-01  3.1748374148757569e-01  3.0923577359901633e-01  3.0366074209254890e-01  3.0052524761445409e-01  2.9928378065236960e-01  2.9918869580222290e-01  2.9935149514532156e-01  2.9895061551371566e-01  2.9731369270213515e-01  2.9400314598503041e-01  2.8883221678002913e-01  2.8183487030617066e-01  2.7321607519330060e-01  2.6318791456933954e-01  2.5202386818163447e-01  2.4005921147849751e-01  2.2742308198867039e-01  2.1405610500388708e-01  2.0057245226824585e-01  1.8625845960210063e-01  1.7185718743437059e-01  1.5675026959820579e-01  1.4077520717930841e-01  1.2469443984555829e-01  1.0789189351261383e-01  9.1560460528993123e-02  7.6137694829999644e-02  6.2435564007393314e-02  5.0603225486871281e-02  4.1088668929907785e-02  3.3216948986931838e-02  2.6607999046447218e-02  1.9758785422296223e-02  1.1727151484253148e-02  0.0000000000000000e+00  0.0000000000000000e+00  0.0000000000000000e+00  0.0000000000000000e+00  0.0000000000000000e+00  0.0000000000000000e+00  0.0000000000000000e+00  0.0000000000000000e+00  0.0000000000000000e+00  1.7782315366008945e-02  3.5734827230965535e-02  5.4065336125471854e-02  7.1550450861587733e-02  8.8163849183716544e-02  1.0367196375328941e-01  1.1775941784092035e-01  1.3001044917227064e-01  1.4006625050384877e-01  1.4780610534098626e-01  1.5341785771730226e-01  1.5746050410551102e-01  1.6081324457164328e-01  1.6450281165999872e-01  1.6952446301149812e-01  1.7658055738357761e-01  1.8592356675918301e-01  1.9734951893793026e-01  2.1030218457862129e-01  2.2412108037275758e-01  2.3833528960109016e-01  2.5277485005327943e-01  2.6766502084911187e-01  2.8333549084846488e-01  3.0029436956343286e-01  3.1865425865800795e-01  3.3828117543806252e-01  3.5891052033773735e-01  3.7973630114763540e-01  3.9999747146551501e-01  4.1855203786861800e-01  4.3398080548940676e-01  4.4461686829896885e-01  4.4925349769934864e-01  4.4577800381726562e-01  4.3624761760088604e-01  4.2206775669429064e-01  4.0750398329810550e-01  3.9685149366116024e-01  3.9332617038207152e-01  3.9916272479820991e-01  4.1517404789886148e-01  4.3860897950298949e-01  4.6676589459472012e-01  4.9613876826511055e-01  5.2394132146604533e-01  5.4828682687168040e-01  5.6812604800065514e-01  5.8348299135618142e-01  5.9415442591982648e-01  5.9968097640787799e-01  6.0006510674512192e-01  5.9520515658449602e-01  5.8580071419915070e-01  5.7241394471351836e-01  5.5666100975759047e-01  5.4035058727074858e-01  5.2551702318051829e-01  5.1387293514045917e-01  5.0660783036864543e-01  5.0405135247839417e-01  5.0601364087334233e-01  5.1163510839830040e-01  5.1964598762309389e-01  5.2918187675386053e-01  5.3935285114935105e-01  5.4981668702750564e-01  5.6022719268981902e-01  5.7056799135970071e-01  5.8085605185524347e-01  5.9098070553617865e-01  6.0105684910739410e-01  6.1055444232897527e-01  6.1941000284306758e-01  6.2732338817930966e-01  6.3452043221226595e-01  6.4058257299689891e-01  6.4610359719102317e-01  6.5076417094523276e-01  6.5474948663119059e-01  6.5855675731143104e-01  6.6220103331040792e-01  6.6590446188959562e-01  6.6966296696024319e-01  6.7365878111687938e-01  6.7790129028388135e-01  6.8241264312992722e-01  6.8714877826320364e-01  6.9217160320428484e-01  6.9738071492874687e-01  7.0279489796713357e-01  7.0836603027835721e-01  7.1407346949072414e-01  7.1990759316864372e-01  7.2584502018146968e-01  7.3186116274280288e-01  7.3793794319565331e-01  7.4407305630529841e-01  7.5024697882213764e-01  7.5644730395545667e-01  7.6266566664533531e-01  7.6890310192364109e-01  7.7514643256657334e-01  7.8139335993689563e-01  7.8763853293594832e-01  7.9387984711961246e-01  8.0011533851467609e-01  8.0633874565357888e-01  8.1255352502027878e-01  8.1875316263505316e-01  8.2493985224301436e-01  8.3111127696064324e-01  8.3726597510949718e-01  8.4340467762689775e-01  8.4952589454476768e-01  8.5562945474065177e-01  8.6171503396752280e-01  8.6778233925918291e-01  8.7383119487254068e-01  8.7986141003844087e-01  8.8587274203438682e-01  8.9186475523895536e-01  8.9186131599991469e-01  8.9185264977890477e-01  8.9183914170494860e-01  8.9182267763407286e-01  8.9180623941329495e-01  8.9179268183174010e-01  8.9178408129705111e-01  8.9178062874248110e-01  6.1287458216749402e-01  4.0640037922204536e-01  4.9906129147706690e-01  5.3095297575707878e-01  5.0030393003864759e-01  5.5387519824116604e-01  5.7465819844175670e-01  5.9378338921762364e-01  6.1203233439799309e-01  6.2844307454971882e-01  6.4169407393276257e-01  6.5452508238029061e-01  6.6714868677833161e-01  6.7977776920774513e-01  6.9269295857282864e-01  7.0560234258504406e-01  7.1925057614012355e-01  7.1549413629264669e-01  7.3409827294455809e-01  6.9895482802030062e-01  6.5387743553185107e-01  6.1618494560480463e-01  5.7986133150993402e-01  4.5504091629934679e-01  5.8698091002789188e-01  5.3257250483737484e-01  4.8973181623071210e-01  4.9549707750434130e-01  4.6427986216580408e-01  5.1871160042832720e-01  5.0370056601568181e-01  7.3309277507223392e-01  4.5583530673490247e-01  5.4536556466066255e-01  5.0885405546127094e-01  3.9361651760165983e-01  5.1803713478963587e-01  7.4800877057787440e-01  5.8825739358111084e-01  3.3571627927211795e-01  7.6244868990936521e-01  5.3075798068049329e-01  3.0120895435818928e-01  5.7684013588478633e-01  6.1557940695586111e-01  7.7885579458011345e-01  2.9839512357623610e-01  4.2640859306530560e-01  7.9679531486715283e-01  3.9112569624165044e-01  2.8512878699869032e-01  4.2758217636062873e-01  6.4447720319287216e-01  2.4481454411737799e-01  8.1476110489461362e-01  4.4668308825514513e-01  6.5786633723310939e-01  6.6877348257866931e-01  4.0976869431701912e-01  1.9411677970210187e-01  8.3472232916499978e-01  8.4955294304254914e-01  5.1238171335640437e-01  1.4944980968384994e-01  9.8313155668482657e-02  6.8483385751522396e-01  3.4863165152756376e-01  2.7458725545798002e-01  7.0044366989202878e-01  5.1660186137732245e-01  4.9746237392470855e-01  7.1691260816104163e-01  2.3152103449192038e-01  5.6294529136582713e-02  7.4020791566510824e-01  1.8050938793354540e-01  7.7186415022994281e-01  1.6142514054964227e-01  8.0323163737437731e-01  1.5025117984058470e-01  8.2174797434107372e-01  8.5854248025778446e-01  8.4048169826375574e-01  1.2459331672013382e-01  8.8677245496536772e-01  1.2772160851864764e-02  8.6608597818632604e-01  4.8788183544993380e-01  8.2263635344865749e-02  2.8178698193678582e-02  4.4548952280132764e-01  5.0347014696391212e-01  6.3177821790112487e-01  5.6626727650224828e-01  6.7609208956865507e-01  7.2894832057523296e-01  7.5307197212318866e-01  7.8525362605412219e-01  5.9960413650977618e-01  5.4704992191002821e-01  5.0461072074866320e-01  5.2514744417880699e-01  8.2433588491247678e-01  8.0556752373991780e-01  3.0968245772209951e-01  2.0391853403311533e-01  7.8824962663040588e-01  2.2169991605937359e-01  8.7071046854204193e-01  2.6767117310935168e-01  2.9520672021024419e-01  7.7079902881990880e-01  2.9827169492018352e-01  8.8676937298792124e-01  3.1321839789525951e-01  7.5546037299914204e-01  3.6659315023024630e-01  4.2557069183759588e-01  5.5834204411297594e-01  4.8263352392814757e-01  7.4027597285039914e-01  5.1621997794991759e-01  5.0987789610541778e-01  4.8548899868347822e-01  7.2603498428253233e-01  5.0584395849700514e-01  7.9481282523667096e-03  7.1245786858869464e-01  6.9915434918938235e-01  6.8597346299651063e-01  6.7385556263310142e-01  6.6059531843381869e-01  6.4806844508390293e-01  6.3481702023362951e-01  6.1851226166104645e-01  6.7321959731682479e-01  6.0107996682126685e-01  5.8233083441910871e-01  5.6238703199748730e-01  7.3517876710047825e-01  5.4113116043248288e-01  6.7655533389202327e-01  7.1891240600483930e-01  6.3576604972851447e-01  5.9884842616068290e-01  8.8714268104436522e-01  4.9055276202689496e-01  1.6746983465537414e-02  8.7712914946722031e-01  4.5875590509390850e-02  4.9613378724337859e-01  8.4953522591970851e-03  8.8734039392056285e-01  4.9832689947577613e-01  4.9840940705719738e-01  5.0290311807614640e-01  4.9413531806305011e-01  4.9835756492664129e-01  4.8794835778222700e-01  4.9367412541951183e-01  4.8258781566826259e-01  4.9048041758160871e-01  4.8021762856179295e-01  4.9161081864316575e-01  4.8284264973703478e-01  4.9887599576870623e-01  4.9156442620959379e-01  5.1154043317221209e-01  5.0550008849835948e-01  5.2749976477251881e-01  5.2187946317619027e-01  5.4279558838568476e-01  5.3853269998493458e-01  5.5592852937973269e-01  5.1993730717392284e-01  5.6468811282307707e-01  5.7222232442212462e-01  5.3840038382469135e-01  5.2144322158982925e-01  5.8621570920672128e-01  5.8693415732430920e-01  6.0341940974414954e-01  5.9771370593830331e-01  6.1852381333151041e-01  6.0485521430057609e-01  6.2837323408818535e-01  6.0827904079655271e-01  6.3364632967389511e-01  6.0242749829498132e-01  6.3174420255229291e-01  6.0211873810434702e-01  6.2850711783740576e-01  5.9620952799902460e-01  6.2210514509622572e-01  5.8311170980407212e-01  6.1303737979466555e-01  5.7939622148767855e-01  6.0485039583185740e-01  5.7111048375516726e-01  5.9616547972541656e-01  5.6331815173111721e-01  5.8827771629957637e-01  5.5695093211022328e-01  5.7959522607062341e-01  5.4249607925714982e-01  5.3101401291922457e-01  5.5305169808414467e-01  5.7853158551094119e-01  5.5153431092314231e-01  5.7248546723074001e-01  5.5121585473254486e-01  5.7111263547536195e-01  5.5283966747588109e-01  5.7059457507761691e-01  5.5622950912143754e-01  5.7092158630101320e-01  5.7564114595480964e-01  5.6038830977790144e-01  5.7145350934550809e-01  5.6479999005738757e-01  5.7157974924841426e-01  5.6867904054608975e-01  5.7074551079174451e-01  5.5078797574211624e-01  5.4213004316979241e-01  4.7673934546651092e-01  5.7165193687593086e-01  5.6856326571191784e-01  5.0863714450787934e-01  5.7301750870991441e-01  5.6488732031649358e-01  5.7286119624823939e-01  5.5989832611725465e-01  5.7104237240713163e-01  5.5419539016980846e-01  5.8984069126290140e-01  5.6874254418074810e-01  5.4834307858329445e-01  5.6396926934869418e-01  5.4235534099564386e-01  5.5824202328598516e-01  5.3646226358197480e-01  5.2197383820449628e-01  5.7619575630377839e-01  5.5081134270860299e-01  5.3013891837623051e-01  5.6240665455854955e-01  5.5319385330528170e-01  5.6759424935169667e-01  5.4881390029356414e-01  5.4215395634466990e-01  5.2184816085397223e-01  5.2868585004185531e-01  5.1081733877787228e-01  5.1104920095223150e-01  4.9671523291124003e-01  5.6881826738056795e-01  5.1001799994574859e-01  5.4362716586914250e-01  5.8185538051073082e-01  4.8971381533728359e-01  4.7935432798199573e-01  4.9025852505814493e-01  4.7820938624374698e-01  4.6014354242505751e-01  4.6445860176715398e-01  4.4114719788814455e-01  4.5020147926586329e-01  4.2396734768356598e-01  4.3676106586268609e-01  4.1047634558143586e-01  4.2654343255223942e-01  4.0200057150914736e-01  4.1953831497921651e-01  3.9819384134020125e-01  4.1585050109499988e-01  3.9909531635001394e-01  4.1465818221304590e-01  4.0263224133880993e-01  4.1309563617381506e-01  4.0636827467440706e-01  4.0984877310563872e-01  4.0838985083413415e-01  4.0388608949697458e-01  5.9010120211984585e-01  5.3161209368829576e-01  4.0718050245730664e-01  3.9458897648550734e-01  4.0170053410548107e-01  3.8312306262552237e-01  6.4368976078989082e-01  3.9269611665125631e-01  3.6975441400447445e-01  6.3043973329379499e-01  6.5649874220358906e-01  5.7640178444102330e-01  5.7807417448612120e-01  5.5066205443682481e-01  5.6919317225711574e-01  5.4616127676575255e-01  5.6477355194851364e-01  5.4273555837687315e-01  5.6261766066030150e-01  5.4147180551343566e-01  5.6126061992120047e-01  5.4207151211889337e-01  5.6216251043834931e-01  5.4431782617435098e-01  5.6387996471863555e-01  5.4638429632346674e-01  5.6509451599451987e-01  5.5322944822222608e-01  5.7138501587181978e-01  5.5837311635567521e-01  5.7321198732343426e-01  5.6395812318747995e-01  5.7781427657404405e-01  5.6998922975530841e-01  5.8275017795287198e-01  5.7620618928449729e-01  5.8782593652671478e-01  5.8238938566966159e-01  5.9306724366283792e-01  5.8837348243522869e-01  5.9973548200132609e-01  6.0408914370059019e-01  5.9830019041998728e-01  6.0837944546023481e-01  6.0350575985594246e-01  6.1272422443958441e-01  6.0851473447188309e-01  6.1704672774553837e-01  6.1815942746249353e-01  6.1233718352144739e-01  6.2131725691434403e-01  6.1851463143226926e-01  6.2594726827691083e-01  6.2964821576295227e-01  6.3357569709120432e-01  6.3048887843044343e-01  6.3750980180951577e-01  6.3525770400615644e-01  6.4159894361036052e-01  5.2392710605769199e-01  6.3994886677087959e-01  6.4572124246780460e-01  6.4833932928105875e-01  6.5196762926626861e-01  6.4976527356336189e-01  6.5567093065862980e-01  6.5385720868480490e-01  6.5945432005026450e-01  5.2937078750732780e-01  5.7854651696365833e-01  5.2227477682846180e-01  5.4398698293843739e-01  6.5779412721755504e-01  6.6329277619888927e-01  6.6512591497602036e-01  6.6874592680901612e-01  6.6724968015270614e-01  6.7242826868454553e-01  6.7130654071747309e-01  6.7624052469248563e-01  6.7759154997589788e-01  6.8111556540485785e-01  6.8015220158909073e-01  6.8480308690868286e-01  6.3773486197386953e-01  6.8415503772086883e-01  6.8856160292547930e-01  5.5719449919768393e-01  5.8064547449625059e-01  6.5493153307639052e-01  5.7222677795432142e-01  6.8815064462519659e-01  6.9251021127160650e-01  6.9278985074502020e-01  6.9685936187847852e-01  6.9640057926116439e-01  7.0077931243891967e-01  7.0130792441418077e-01  7.0510745817715148e-01  7.0475491322846651e-01  7.0896822340344834e-01  6.0023623390675862e-01  7.0877560634380676e-01  7.1295921537522389e-01  6.8270862887964734e-01  6.3006852994640372e-01  5.3392042863235023e-01  6.1182976095717478e-01  7.1317405641986709e-01  7.1709964989142516e-01  7.1700632816455856e-01  7.2107475161104284e-01  3.8242721620285475e-01  3.5709950917697203e-01  3.7122612015144368e-01  3.4509590655323957e-01  3.5986910858129423e-01  3.3496240660324844e-01  7.2125952929161896e-01  7.2521085658286899e-01  5.7037742163878791e-01  7.2515685143460007e-01  7.2921374951620377e-01  7.2924059460900770e-01  7.3328812859790360e-01  4.7857106366252761e-01  5.9045194581461269e-01  6.4833789695152166e-01  4.4728992899758629e-01  3.4909410332180796e-01  3.2669410726936254e-01  4.9221218213278395e-01  4.0817961397110464e-01  3.1590732882326739e-01  3.1030681929807791e-01  3.1990605467590821e-01  3.0644141156344712e-01  3.1363794583196564e-01  3.0335689968541535e-01  3.0723749874541723e-01  3.0006376799675843e-01  2.9993492418570700e-01  2.9543955365129038e-01  2.9137531418950319e-01  2.8897682338901920e-01  2.8151671228538117e-01  2.8072748948612969e-01  2.7065551742013683e-01  2.7100223812664875e-01  2.5938270092260085e-01  2.6020213717532770e-01  2.4767382908838620e-01  2.4866100219578263e-01  2.3531864377728093e-01  2.3660900779124072e-01  2.2280258627562863e-01  2.2433259784431145e-01  7.3342348712672922e-01  7.3743733111426935e-01  7.3754644683231319e-01  7.4152861561257977e-01  7.4168383416879324e-01  7.4570098821342801e-01  2.1042850860277712e-01  2.1219495426901863e-01  1.9891717467747796e-01  2.0042595298136481e-01  1.8583881333427019e-01  1.8884259711907142e-01  3.4871993453305483e-01  7.4527571988800179e-01  7.4976731882926184e-01  7.5014760652956181e-01  7.5419857953329617e-01  6.6665971279793212e-01  6.7073957988004707e-01  7.5395521667520204e-01  7.5831165119197430e-01  7.5846920804192808e-01  7.6264308305154405e-01  7.6284311286646156e-01  7.6700695478306991e-01  7.667979247