<?xml version="1.0"?>
<VTKFile type="UnstructuredGrid"  version="0.1"  >
<UnstructuredGrid>
<Piece  NumberOfPoints="2945" NumberOfCells="5525">
<Points>
<DataArray  type="Float64"  NumberOfComponents="3"  format="ascii">0 0.1 0  0.95 0.1 0  1 0.1 0  1 0 0  1.5 0 0  3 0 0  3 0.3 0  0 0.3 0  0.0197424558707114 0.1 0  0.03915669042224804 0.1 0  0.05824816022699029 0.1 0  0.07702223050332387 0.1 0  0.09548417327144595 0.1 0  0.1136391897583987 0.1 0  0.1314923700144587 0.1 0  0.1490487330862866 0.1 0  0.1663132263225292 0.1 0  0.1832906857273058 0.1 0  0.1999858946008978 0.1 0  0.216403545770297 0.1 0  0.2325482404045023 0.1 0  0.2484245348165176 0.1 0  0.2640368740372501 0.1 0  0.2793896589642241 0.1 0  0.2944872056237027 0.1 0  0.3093337469555254 0.1 0  0.3239334613687816 0.1 0  0.3382904528528069 0.1 0  0.3524087553122972 0.1 0  0.3662923366391824 0.1 0  0.3799451014768399 0.1 0  0.393370886920506 0.1 0  0.4065734648871676 0.1 0  0.419556546320114 0.1 0  0.4323237821343415 0.1 0  0.4448787573056132 0.1 0  0.4572250047274954 0.1 0  0.4693659926332938 0.1 0  0.4813051343276231 0.1 0  0.4930457849308193 0.1 0  0.5045912455271677 0.1 0  0.5159447600209797 0.1 0  0.5271095174127136 0.1 0  0.5380886618453393 0.1 0  0.5488852725463512 0.1 0  0.5595023868312478 0.1 0  0.5699429904313016 0.1 0  0.5802100167387366 0.1 0  0.5903063508274641 0.1 0  0.6002348329443006 0.1 0  0.6099982499579832 0.1 0  0.6195993483501782 0.1 0  0.6290408246013842 0.1 0  0.6383253354321616 0.1 0  0.6474554910757137 0.1 0  0.6564338522440513 0.1 0  0.6652629482939147 0.1 0  0.6739452579188948 0.1 0  0.6824832240165607 0.1 0  0.6908792415022103 0.1 0  0.6991356755989045 0.1 0  0.7072548438546967 0.1 0  0.7152390281534421 0.1 0  0.7230904746196039 0.1 0  0.7308113906759266 0.1 0  0.7384039435269326 0.1 0  0.7458702676581656 0.1 0  0.7532124631720397 0.1 0  0.7604325921167397 0.1 0  0.7675326856666862 0.1 0  0.7745147374421916 0.1 0  0.7813807123989068 0.1 0  0.7881325374362798 0.1 0  0.7947721131625659 0.1 0  0.8013013031866276 0.1 0  0.8077219449067021 0.1 0  0.8140358419942376 0.1 0  0.8202447685401882 0.1 0  0.8263504700910924 0.1 0  0.8323546643163114 0.1 0  0.8382590362474568 0.1 0  0.8440652473522128 0.1 0  0.8497749272799842 0.1 0  0.8553896837646281 0.1 0  0.8609110933285474 0.1 0  0.866340708855119 0.1 0  0.8716800550492284 0.1 0  0.8769306339052932 0.1 0  0.8820939206038667 0.1 0  0.8871713655604893 0.1 0  0.8921643975475726 0.1 0  0.8970744196575535 0.1 0  0.9019028106970642 0.1 0  0.9066509291259979 0.1 0  0.9113201098984042 0.1 0  0.9159116634553873 0.1 0  0.9204268818729691 0.1 0  0.9248670319440222 0.1 0  0.9292333656649013 0.1 0  0.9335271075812669 0.1 0  0.9377494640511216 0.1 0  0.941901623463222 0.1 0  0.9459847526686701 0.1 0  0.9538461538461205 0.1 0  0.9576923076922409 0.1 0  0.9615384615384381 0.1 0  0.9653846153846337 0.1 0  0.9692307692307542 0.1 0  0.9730769230768747 0.1 0  0.9769230769229952 0.1 0  0.9807692307691157 0.1 0  0.9846153846152361 0.1 0  0.9884615384614317 0.1 0  0.9923076923076356 0.1 0  0.9961538461538395 0.1 0  1 0.09591793123533533 0  1 0.09133596463859224 0  1 0.08619288104391448 0  1 0.08041996484521211 0  1 0.07394008421771697 0  1 0.06666666567302955 0  1 0.05850252932209174 0  1 0.04933859630113544 0  1 0.03905242821848202 0  1 0.02750659386753798 0  1 0.01454683679239736 0  1.015625 0 0  1.03125 0 0  1.046875 0 0  1.0625 0 0  1.078125 0 0  1.09375 0 0  1.109375 0 0  1.125 0 0  1.140625 0 0  1.15625 0 0  1.171875 0 0  1.1875 0 0  1.203125 0 0  1.21875 0 0  1.234375 0 0  1.25 0 0  1.265625 0 0  1.28125 0 0  1.296875 0 0  1.3125 0 0  1.328125 0 0  1.34375 0 0  1.359375 0 0  1.375 0 0  1.390625 0 0  1.40625 0 0  1.421875 0 0  1.4375 0 0  1.453125 0 0  1.46875 0 0  1.484375 0 0  1.515920751924515 0 0  1.531989369316721 0 0  1.54820720925872 0 0  1.564575665560501 0 0  1.581096138674279 0 0  1.597770029901263 0 0  1.614598783332311 0 0  1.631583831055205 0 0  1.64872661129721 0 0  1.666028606716533 0 0  1.683491276608443 0 0  1.701116134125304 0 0  1.718904673324128 0 0  1.736858414799339 0 0  1.754978895814663 0 0  1.773267661782904 0 0  1.791726281103402 0 0  1.810356325314689 0 0  1.8291593848892 0 0  1.848137076690385 0 0  1.867291007717254 0 0  1.886622833871288 0 0  1.90613418642363 0 0  1.925826753299799 0 0  1.945702199101513 0 0  1.96576223584749 0 0  1.986008569283268 0 0  2.006442931928877 0 0  2.02706707547783 0 0  2.047882750887917 0 0  2.06889175187935 0 0  2.090095860038271 0 0  2.111496891648636 0 0  2.133096679109554 0 0  2.154897066851056 0 0  2.176899916687499 0 0  2.199107102752146 0 0  2.22152053937028 0 0  2.244142122958061 0 0  2.266973806444078 0 0  2.290017523268154 0 0  2.313275249499252 0 0  2.336748971745516 0 0  2.360440702338606 0 0  2.384352453384031 0 0  2.408486280477412 0 0  2.432844240041185 0 0  2.457428414757088 0 0  2.482240901796653 0 0  2.507283830121838 0 0  2.532559332080812 0 0  2.558069568787417 0 0  2.583816724966441 0 0  2.60980299606584 0 0  2.636030600971886 0 0  2.662501790984011 0 0  2.689218818279327 0 0  2.716183964547616 0 0  2.743399548861297 0 0  2.77086788244719 0 0  2.798591312896326 0 0  2.826572223178268 0 0  2.854812990138617 0 0  2.883316031690714 0 0  2.912083780657189 0 0  2.941118704633482 0 0  2.970423276998917 0 0  3 0.02999999999994495 0  3 0.05999999999987042 0  3 0.089999999999783 0  3 0.119999999999701 0  3 0.149999999999619 0  3 0.179999999999692 0  3 0.2099999999997737 0  3 0.2399999999998511 0  3 0.2699999999999185 0  2.970138294777171 0.3 0  2.940375666438236 0.3 0  2.910711782853056 0.3 0  2.881146331305122 0.3 0  2.851678975030285 0.3 0  2.822309388626621 0.3 0  2.793037250095074 0.3 0  2.76386223529133 0.3 0  2.734784017903872 0.3 0  2.705802289276642 0.3 0  2.676916713794697 0.3 0  2.648126987654635 0.3 0  2.619432780406184 0.3 0  2.590833779385199 0.3 0  2.562329669847737 0.3 0  2.533920134950189 0.3 0  2.505604855727852 0.3 0  2.477383539822502 0.3 0  2.449255847639465 0.3 0  2.421221492569094 0.3 0  2.393280152486815 0.3 0  2.36543151914496 0.3 0  2.337675285481809 0.3 0  2.310011142385583 0.3 0  2.282438797441587 0.3 0  2.254957931061538 0.3 0  2.227568248063605 0.3 0  2.200269436651085 0.3 0  2.173061204949961 0.3 0  2.145943251515011 0.3 0  2.118915272469994 0.3 0  2.091976978084957 0.3 0  2.065128060700849 0.3 0  2.038368218849433 0.3 0  2.01169717777258 0.3 0  1.985114624111908 0.3 0  1.958620267850966 0.3 0  1.93221382054972 0.3 0  1.905894991850698 0.3 0  1.879663489459713 0.3 0  1.853519019126419 0.3 0  1.827461291053897 0.3 0  1.801490031354372 0.3 0  1.775604937580312 0.3 0  1.74980572560258 0.3 0  1.724092118631866 0.3 0  1.698463829173586 0.3 0  1.672920575782554 0.3 0  1.647462076974085 0.3 0  1.622088043536933 0.3 0  1.5967981978949 0.3 0  1.571592267767068 0.3 0  1.546469970305736 0.3 0  1.521431023814044 0.3 0  1.496475156230927 0.3 0  1.471602093687753 0.3 0  1.446811560490646 0.3 0  1.422103279101731 0.3 0  1.397476971708191 0.3 0  1.37293238939876 0.3 0  1.348469231419202 0.3 0  1.324087248732772 0.3 0  1.299786165921677 0.3 0  1.275565710847046 0.3 0  1.251425617644257 0.3 0  1.227365618676339 0.3 0  1.203385446174014 0.3 0  1.179484853067473 0.3 0  1.155663548773374 0.3 0  1.131921292279077 0.3 0  1.108257802159295 0.3 0  1.084672829009693 0.3 0  1.061166115303374 0.3 0  1.037737392995421 0.3 0  1.01438640299116 0.3 0  0.991112899770314 0.3 0  0.9679166155523955 0.3 0  0.944797284182564 0.3 0  0.921754678526042 0.3 0  0.8987885143602501 0.3 0  0.8758985548820624 0.3 0  0.8530845484099929 0.3 0  0.8303462351786988 0.3 0  0.8076833651172373 0.3 0  0.7850956864865304 0.3 0  0.7625829601354557 0.3 0  0.7401449314598274 0.3 0  0.717781337993959 0.3 0  0.6954919649675473 0.3 0  0.6732765357561226 0.3 0  0.6511348120768439 0.3 0  0.6290665642016573 0.3 0  0.6070715355430467 0.3 0  0.5851494825775325 0.3 0  0.5633001690203812 0.3 0  0.5415233562273221 0.3 0  0.5198187909431873 0.3 0  0.4981862401387795 0.3 0  0.4766254686134248 0.3 0  0.4551362360485234 0.3 0  0.4337182975262159 0.3 0  0.4123714223228037 0.3 0  0.3910953802377493 0.3 0  0.3698899313205595 0.3 0  0.3487548463710963 0.3 0  0.3276898864081783 0.3 0  0.3066948129116018 0.3 0  0.2857694003037476 0.3 0  0.2649134227095047 0.3 0  0.2441266417321288 0.3 0  0.2234088223399122 0.3 0  0.2027597568977288 0.3 0  0.1821792020676698 0.3 0  0.1616669305402443 0.3 0  0.1412227158799362 0.3 0  0.12084633013886 0.3 0  0.1005375673448281 0.3 0  0.08029618164595353 0.3 0  0.06012194778526769 0.3 0  0.04001466495039718 0.3 0  0.01997408913631205 0.3 0  0 0.2800000000000553 0  0 0.2600000000001105 0  0 0.2400000000001658 0  0 0.2200000000002211 0  0 0.2000000000002764 0  0 0.1800000000002244 0  0 0.1600000000001691 0  0 0.140000000000115 0  0 0.1200000000000564 0  1.133778471000506 0.01219539743990768 0  1.003741919047894 0.09354664821474232 0  0.9559421147150347 0.1035858189992458 0  0.9313792160389045 0.1037365237938103 0  0.9788461538460573 0.1033060829993555 0  0.9090102438250753 0.1037269304984056 0  0.8846304212778655 0.1043349840723655 0  0.8581503885465881 0.104741932962923 0  0.8286416220145676 0.1052762843984476 0  0.7982741772533339 0.1053575624517407 0  0.7708789559342691 0.1060290465840416 0  0.741870349714261 0.1078220590984258 0  0.7112469360040695 0.10685702926368 0  0.6783901541417233 0.1079959711853378 0  0.642884733623195 0.1075561996086514 0  0.6056235042367955 0.1085956039602543 0  0.5647007593786924 0.1083187281660325 0  1.1953125 0.01353164693413185 0  1.258148737344733 0.01268350115427042 0  1.320087046516829 0.01426312402966312 0  1.383495130751951 0.01432665475473204 0  1.4453125 0.01315663539200989 0  1.50886768312388 0.01395488397722681 0  0.9942307692307371 0.103330866937657 0  1.119309781943483 0.2802014914557878 0  1.572831235329714 0.01707210522554785 0  1.637611634353954 0.01209340368483431 0  1.709661292005932 0.0146870244871893 0  1.006561890631532 0.07068055446055937 0  1.784793444007901 0.01499371444634687 0  1.855459587353174 0.0
[...]
<PointData  Scalars="pressure"> 
<DataArray  type="Float64"  Name="pressure"  format="ascii">5.1699977090742055e-01  -2.6565831045746807e-01  2.6245130038073577e-01  4.3430328444759653e-01  3.5408531275696170e-01  0.0000000000000000e+00  0.0000000000000000e+00  5.1710831989945527e-01  5.1107714574194485e-01  5.0525184585959204e-01  4.9952191291061537e-01  4.9388559169369550e-01  4.8834093738002249e-01  4.8288645496631677e-01  4.7752027886760978e-01  4.7224057827166238e-01  4.6704600747977465e-01  4.6193419224166538e-01  4.5690357980443652e-01  4.5195270095678003e-01  4.4707933214098949e-01  4.4228195698089812e-01  4.3755835004401361e-01  4.3290692708909639e-01  4.2832526489313066e-01  4.2381191218076475e-01  4.1936427320057396e-01  4.1498085964645276e-01  4.1065846571481990e-01  4.0639570310936851e-01  4.0219156673104717e-01  3.9804093728105028e-01  3.9394303855122598e-01  3.8989471016954363e-01  3.8589444790139071e-01  3.8193815535978365e-01  3.7802429548196614e-01  3.7414888617248210e-01  3.7031025830522774e-01  3.6650600054106469e-01  3.6273000875057559e-01  3.5898094826612559e-01  3.5525609309106826e-01  3.5155143393474020e-01  3.4786248072364923e-01  3.4418712486954584e-01  3.4052035416742521e-01  3.3685936133576905e-01  3.3319851998880501e-01  3.2953449524457956e-01  3.2586334355160101e-01  3.2218049183814751e-01  3.1848020622549517e-01  3.1475947128400861e-01  3.1101112849323131e-01  3.0723167248924249e-01  3.0341553927996606e-01  2.9955357990743425e-01  2.9564707035245996e-01  2.9168129228015061e-01  2.8765444253241734e-01  2.8356435886082776e-01  2.7939739553265003e-01  2.7514697904059465e-01  2.7080935318724653e-01  2.6636311446478778e-01  2.6182056580004065e-01  2.5716488537272786e-01  2.5237698938263975e-01  2.4745623940190251e-01  2.4238050692824761e-01  2.3715747692215708e-01  2.3176759235238631e-01  2.2618381036546512e-01  2.2040420570941205e-01  2.1440992606079323e-01  2.0818372273447980e-01  2.0170558938372266e-01  1.9495954118291964e-01  1.8791666437343296e-01  1.8056594620250685e-01  1.7287281446915842e-01  1.6479577293165959e-01  1.5631056935008458e-01  1.4738470743340107e-01  1.3795998908626136e-01  1.2799802961284842e-01  1.1744736481838913e-01  1.0624016643220494e-01  9.4252236782373600e-02  8.1452428429007614e-02  6.7707585562523542e-02  5.2902229392285102e-02  3.6819244717752254e-02  1.9298187267082347e-02  1.0725361212082180e-04  -2.1272803477337496e-02  -4.5160367669029929e-02  -7.2139700997200878e-02  -1.0327425102237547e-01  -1.3975060658251884e-01  -1.8323436182185290e-01  -2.4674423915038518e-01  -4.9868878997129890e-01  -5.9553516604622048e-01  -5.6036423967889670e-01  -4.6393345388416546e-01  -3.3018413461278351e-01  -1.8836386506879343e-01  -3.8794308293512277e-02  1.0236993865987906e-01  2.4108525947990958e-01  3.6386333949603866e-01  4.5533811462830687e-01  5.6848410056518051e-01  1.9980817516571517e-01  3.3210930577927955e-01  3.6298704047588959e-01  3.8612929022026377e-01  4.0027593923852212e-01  4.1042877774928949e-01  4.1859995180646759e-01  4.2546631458668988e-01  4.3125030111949381e-01  4.3506551766585178e-01  4.3553139255321094e-01  4.3280763541603401e-01  4.3322688049411656e-01  4.3677703083388253e-01  4.4398726708041181e-01  4.5546272585572811e-01  4.7120128282654405e-01  4.9042124149130373e-01  5.1165182045701207e-01  5.3228278256952732e-01  5.4999364266720097e-01  5.6307592625696001e-01  5.7056372397681410e-01  5.7244502430437083e-01  5.6929086228158698e-01  5.6204692582054538e-01  5.5164056351734181e-01  5.3923284548765649e-01  5.2561844277318726e-01  5.1156318139496026e-01  4.9751412442680021e-01  4.8357556017768466e-01  4.7016043127279450e-01  4.5689872140183674e-01  4.4385940025986420e-01  4.3075664814679143e-01  4.1755912589935607e-01  4.0388290249448999e-01  3.9051052940573922e-01  3.7782042258946497e-01  3.6687457743566088e-01  3.5868739429062924e-01  3.5354668018988150e-01  3.5705581617250037e-01  3.6392786674109728e-01  3.7295125327956041e-01  3.8286527904009171e-01  3.9179800032798046e-01  3.9904742225358319e-01  4.0345725733761545e-01  4.0482110912952041e-01  4.0314301500127836e-01  3.9879608301383163e-01  3.9232723111947571e-01  3.8422778357139264e-01  3.7506206390651659e-01  3.6517849668737795e-01  3.5487407560273410e-01  3.4438687335150553e-01  3.3384726389207259e-01  3.2304950948167416e-01  3.1243363464231710e-01  3.0138152103326377e-01  2.8987433490087133e-01  2.7767559959891325e-01  2.6458406132917572e-01  2.5095820769646582e-01  2.3702500407919863e-01  2.2415352244841363e-01  2.1301963955975287e-01  2.0495349250133371e-01  2.0105287106929862e-01  2.0163799641701555e-01  2.0649737187379488e-01  2.1480241290682014e-01  2.2518888911681448e-01  2.3620006899047230e-01  2.4624448217024666e-01  2.5417838090232248e-01  2.5920283753510082e-01  2.6101152141610412e-01  2.5965929577277697e-01  2.5545328540853213e-01  2.4884263873239926e-01  2.4030173835038185e-01  2.3029170901669951e-01  2.1921058378193969e-01  2.0744453334966192e-01  1.9520735174989329e-01  1.8265199928980649e-01  1.6980789575436198e-01  1.5620373971624316e-01  1.4118292537228921e-01  1.2499997219601877e-01  1.0695951071292033e-01  8.8797854830409639e-02  7.1887168969203108e-02  5.7322054527751132e-02  4.7739995507386460e-02  4.3320949370445033e-02  4.3893704304695288e-02  4.8186532777767931e-02  5.3944680626409100e-02  5.8954521004301284e-02  6.0526783729096915e-02  5.7837841170696860e-02  4.9518320516920594e-02  3.7131705765294849e-02  1.9766637120165683e-02  0.0000000000000000e+00  0.0000000000000000e+00  0.0000000000000000e+00  0.0000000000000000e+00  0.0000000000000000e+00  0.0000000000000000e+00  0.0000000000000000e+00  0.0000000000000000e+00  0.0000000000000000e+00  1.7833327408923220e-03  6.0817470496483004e-03  1.4229006018273446e-02  2.5501087287499544e-02  3.9297698143108829e-02  5.4506051601713054e-02  7.0311307529437581e-02  8.6120710864874675e-02  1.0152369973627227e-01  1.1612747746311573e-01  1.2938598237579724e-01  1.4059732207766107e-01  1.4901983785083117e-01  1.5412202527667265e-01  1.5581499369563578e-01  1.5461053924061066e-01  1.5167378458039671e-01  1.4865468546788027e-01  1.4735916673507865e-01  1.4939215934916042e-01  1.5571994445874837e-01  1.6639332248344937e-01  1.8050247521797452e-01  1.9648490042703848e-01  2.1289989090747855e-01  2.2851537475016684e-01  2.4295162628626871e-01  2.5652396416106787e-01  2.6971476997383076e-01  2.8302574460945207e-01  2.9656343201808510e-01  3.0984689488294065e-01  3.2211728832203051e-01  3.3198955868219943e-01  3.3728611195606345e-01  3.3758523385380768e-01  3.3116906858190104e-01  3.1872956310512651e-01  3.0166330778178863e-01  2.8222328221802584e-01  2.6431401371567748e-01  2.5046912289038664e-01  2.4343494052868081e-01  2.4475847933758269e-01  2.5478975407686050e-01  2.7262307576126621e-01  2.9601193513318708e-01  3.2245775330170745e-01  3.4945309843110467e-01  3.7438522259915169e-01  3.9583628007011784e-01  4.1284407427284608e-01  4.2517387660062878e-01  4.3218568436774263e-01  4.3322213657992775e-01  4.2834451063485385e-01  4.1779527634877534e-01  4.0247105751706541e-01  3.8375461544043948e-01  3.6364112702989049e-01  3.4431553847895530e-01  3.2808522292934506e-01  3.1642213091466759e-01  3.1022380378882397e-01  3.0941045021840419e-01  3.1299297949079186e-01  3.1972626659514419e-01  3.2778707912668570e-01  3.3587629512814976e-01  3.4293794652207504e-01  3.4832347203983122e-01  3.5197174460814151e-01  3.5385090178554041e-01  3.5420704548761417e-01  3.5312680338606517e-01  3.5079337796921128e-01  3.4724388432114989e-01  3.4288027580887048e-01  3.3786378795712479e-01  3.3281353412180947e-01  3.2827222874024775e-01  3.2447890457828249e-01  3.2157004823770413e-01  3.1967695034963411e-01  3.1896073633485517e-01  3.1934079965090434e-01  3.2062430035911549e-01  3.2273144006370186e-01  3.2568168985888285e-01  3.2918751756303311e-01  3.3326036066865605e-01  3.3774597166318149e-01  3.4258820847094601e-01  3.4774158208013706e-01  3.5314438577328899e-01  3.5872604025143223e-01  3.6446518160484576e-01  3.7033347102194336e-01  3.7629731274834333e-01  3.8232773605068171e-01  3.8841029070584221e-01  3.9454342270932419e-01  4.0070234927450993e-01  4.0688313080773775e-01  4.1307463729345417e-01  4.1927437743940671e-01  4.2547710150984819e-01  4.3167342032124767e-01  4.3786786623178087e-01  4.4405042856102916e-01  4.5022404377033948e-01  4.5638514808443148e-01  4.6253145003023832e-01  4.6866387120389708e-01  4.7478012915110607e-01  4.8087992480520908e-01  4.8696272238220928e-01  4.9302804966960356e-01  4.9907560694989445e-01  5.0510508081256977e-01  5.1111609126229141e-01  5.1710802214714091e-01  5.1710357248436700e-01  5.1709243697719609e-01  5.1707513339716427e-01  5.1705406994439029e-01  5.1703303980290172e-01  5.1701567219644107e-01  5.1700462151870508e-01  5.1700015309510472e-01  5.2107377743456984e-01  3.2289385214231336e-01  -5.4031021914322130e-01  -9.3252923368360621e-02  6.4243254012179091e-02  2.5455466929862572e-02  9.8627245181041961e-02  1.5075765549619521e-01  1.9148666745717219e-01  2.2254655846083368e-01  2.4459948691609118e-01  2.6387839246080441e-01  2.8123422216796434e-01  2.9732141885083008e-01  3.1275728150704368e-01  3.2741103837511831e-01  3.4230012106983365e-01  5.6931729014159416e-01  5.4419943676005156e-01  4.9083768273806166e-01  4.3786323252291903e-01  3.8527687898281204e-01  3.5270643765555837e-01  4.7398237312838609e-01  3.4686295947616408e-01  3.7558130317568950e-01  4.0321907857514488e-01  3.8934793656812722e-01  4.0486071775753596e-01  3.4975551822215117e-01  3.0909448703530168e-01  3.5695631379644110e-01  2.5901250053448177e-01  3.1714385181867072e-01  3.2019967820896672e-01  2.0792893690330869e-01  3.9185057745797608e-01  3.7242226906041365e-01  4.2993386485715446e-01  2.0864164164498772e-01  3.8718673619197225e-01  4.6322422822853770e-01  2.4918955372354787e-01  3.3812124755886808e-01  3.5489190953680638e-01  4.0381150619275885e-01  2.5745447256845283e-01  2.4394231312519057e-01  4.2188141198769313e-01  2.8835135020409858e-01  2.2535546643531998e-01  3.3410288153338707e-01  3.4757196332134271e-01  1.7525917372202138e-01  4.3991628795669407e-01  3.2687966278465086e-01  3.3231633215852696e-01  3.2127025023181993e-01  2.8964462081130732e-01  1.1783713804480972e-01  4.5991620197818911e-01  4.7476135949803172e-01  2.6339693098304645e-01  6.4383392555190461e-02  4.1680722960052950e-02  3.2192482367492115e-01  2.4985294772933755e-01  1.8814771866769622e-01  3.3154422482668777e-01  -2.2033563079522517e-01  -3.7112868941664634e-01  3.4511984258379608e-01  1.5113975748885342e-01  5.4910706349681225e-02  3.6664344048347886e-01  1.5171712180128719e-01  3.9746518863385272e-01  1.5166463188331303e-01  4.2858033250327537e-01  1.2385791613601943e-01  4.4703933864521894e-01  4.8379169005705608e-01  4.6574410708692726e-01  7.9150092075593176e-02  5.1200147508426153e-01  1.4327684406237047e-03  4.9130246523169280e-01  4.2760261957629797e-01  3.3926764400789032e-02  5.3634259251526609e-02  3.7978036966935569e-01  4.4091088855373978e-01  3.5387389645945111e-01  3.3326326257582256e-01  3.1966257940998666e-01  3.5603347330604623e-01  3.7904489893513266e-01  4.1071099944289163e-01  4.0573869403601126e-01  4.2254304955501920e-01  3.5375796278719468e-01  3.0923579243544774e-01  4.4951316049578038e-01  4.3069287017075863e-01  2.2173582732105857e-01  1.4613091192728092e-01  4.1328370389157787e-01  1.5051512234617187e-01  4.9595556779710509e-01  2.0122745699822261e-01  2.4488996236621044e-01  3.9566333810856319e-01  2.5955367044858174e-01  5.1200755420881250e-01  2.2896536070490101e-01  3.8006091258019370e-01  2.0065583637562273e-01  2.3004585527857893e-01  3.5869633000400064e-01  2.8599248871950655e-01  3.6443909164173333e-01  3.2966513736887548e-01  3.7152705620057280e-01  4.0143385721174207e-01  3.4952857999459991e-01  3.9439040110860640e-01  1.2648667687868759e-02  3.3495467579466787e-01  3.2017592146339824e-01  3.0483847154734384e-01  2.8991914293373683e-01  2.7240437720207372e-01  2.5441350640805882e-01  2.3346147486502991e-01  2.0430709253061777e-01  5.5481276367363752e-01  1.6793651153809827e-01  1.2095916866588417e-01  5.8105208028481126e-02  5.6397980259253655e-01  -3.3259736849038816e-02  4.6455718804207813e-01  5.1696022122862817e-01  4.1403864582372402e-01  3.6301260662993967e-01  5.1236427994186517e-01  3.2611215312156849e-01  -2.1195535446899656e-03  5.0234793478049078e-01  8.9858152199073192e-03  4.3448919834760380e-01  1.7306872566410662e-02  5.1258331414197233e-01  4.3643163578468452e-01  4.3679088703562263e-01  4.4093602996898151e-01  4.3459412363182071e-01  4.3916039774348392e-01  4.3284821093112241e-01  4.3921148810859295e-01  4.3353482481050665e-01  4.4161210942480172e-01  4.3670252542981680e-01  4.4565507768279011e-01  4.3928350043318659e-01  4.4821437302300460e-01  4.3825444874314645e-01  4.4617020401763718e-01  4.3291558446332506e-01  4.3906706700217168e-01  4.2319983817235657e-01  4.2722492572659448e-01  4.1001692632662701e-01  4.1184822919763830e-01  4.0570803402799077e-01  4.3416108529828368e-01  4.1247639040915829e-01  3.9405077077040540e-01  3.8978557530093239e-01  4.3482778946050449e-01  4.1078445046398088e-01  4.3564970515912216e-01  4.0700261483121347e-01  4.3469002874735746e-01  4.0212302838639202e-01  4.3140516505931492e-01  3.9615914619033027e-01  4.2595104749199419e-01  3.8143130781792700e-01  4.1602452100746790e-01  3.7767622421015429e-01  4.0863790249679399e-01  3.7074516909010302e-01  4.0129793262614255e-01  3.5921854679081361e-01  3.9410560217202956e-01  3.6089155373838772e-01  3.9056595076217276e-01  3.6012572736738496e-01  3.8842433852857627e-01  3.6200583692487576e-01  3.8845287084823166e-01  3.6684669619034826e-01  3.8857387059275406e-01  3.7988506993712251e-01  3.7428007242418559e-01  3.7473910978803321e-01  3.9464022570771701e-01  3.8390143855689451e-01  3.9645947952749083e-01  3.9299972650552373e-01  4.0028520252549910e-01  4.0211267871716705e-01  4.0356646591863754e-01  4.1072223845399397e-01  4.0677527947750525e-01  3.8951765175090847e-01  4.1824401734706007e-01  4.0965111609628335e-01  4.2427264107240414e-01  4.1227138662790547e-01  4.2868661540940045e-01  4.1429180128819743e-01  3.6845738635391018e-01  3.6201528658849763e-01  4.3106046517728625e-01  4.3047545240266805e-01  4.1489629418554386e-01  3.7913538544873399e-01  4.2860128887490168e-01  4.1286935967148664e-01  4.2306987380501609e-01  4.0732855835264381e-01  4.1255634540639208e-01  3.9706780795480429e-01  3.7453657158677273e-01  3.9770318000766719e-01  3.8225063371649143e-01  3.7757960739851565e-01  3.6315886632317179e-01  3.5407663194610478e-01  3.4139080876368894e-01  4.5848802137180206e-01  3.4714661752340881e-01  3.2853251738266737e-01  3.1809833947808352e-01  3.6031520275588524e-01  3.5189867338362463e-01  3.6367527581975950e-01  3.3338450492886740e-01  3.0207178631611592e-01  2.9485569399864064e-01  2.7700750643376609e-01  2.7389759937362657e-01  2.5549488975319473e-01  2.5691817336979023e-01  3.9595154634551633e-01  3.1522726978885929e-01  3.9229580446742363e-01  3.9634443855672746e-01  2.3950565555591879e-01  2.4450873953296193e-01  2.6633469857872000e-01  2.5729065356848851e-01  2.3760929686277088e-01  2.5259765594338274e-01  2.3608391495246508e-01  2.5204300737902618e-01  2.3925084474838726e-01  2.5454318900017697e-01  2.4628483832577494e-01  2.5938269355477106e-01  2.5575476137144182e-01  2.6412650219557560e-01  2.6582686205312217e-01  2.6762353703188491e-01  2.7432109623082113e-01  2.6753538217963818e-01  2.7999450729295838e-01  2.6430930805390024e-01  2.8184393201532149e-01  2.5861929473984396e-01  2.8179500928322726e-01  2.5248245475712078e-01  4.0290993025032718e-01  3.5400194833207937e-01  2.7925672362488901e-01  2.4741912981917313e-01  2.7531875095626263e-01  2.4520050152571918e-01  4.6498286581162851e-01  2.7197757063709643e-01  2.4500264710800540e-01  4.1928337039403968e-01  4.4151128971389658e-01  3.5506606503847826e-01  3.4840312767862164e-01  3.3813684714015474e-01  3.3438207212578414e-01  3.1883667493416729e-01  3.1562195996360681e-01  2.9410805468960888e-01  2.9330618968156791e-01  2.6356251451916235e-01  2.6854404566263446e-01  2.3033346275301445e-01  2.4408178143602979e-01  1.9744384645305912e-01  2.1964852924605166e-01  1.6045927544385544e-01  1.9412213039591583e-01  1.4623649128448274e-01  1.8511079756536700e-01  1.3599995201891243e-01  1.6947177803550759e-01  1.3134551880498385e-01  1.6553962109871181e-01  1.3336361038995201e-01  1.6616899010837544e-01  1.3961389840775620e-01  1.6991233202722777e-01  1.4805327461766346e-01  1.7547698830098973e-01  2.0044903579182774e-01  1.9831938848906733e-01  2.0156035861982624e-01  1.8222082224695321e-01  2.0569719583845247e-01  1.8982788554332242e-01  2.1072245204570456e-01  1.9765382530075629e-01  2.1622272982852767e-01  2.2689706804034432e-01  2.0265151358181588e-01  2.2187971175388921e-01  2.1295124888725406e-01  2.2828042559661144e-01  2.3881003772808618e-01  2.4329894408288752e-01  2.3452997017064350e-01  2.4791264532590859e-01  2.4126259053594890e-01  2.5293149578563118e-01  3.0341275824178188e-01  2.4777427283869241e-01  2.5794048840245959e-01  2.6494546046033263e-01  2.6868706265158954e-01  2.6275827127970891e-01  2.7261493020525207e-01  2.6766366878523107e-01  2.7673988620621920e-01  1.4219427200798324e-01  2.3517190168390442e-01  2.2791429166894739e-01  9.8616148353519895e-02  2.7204630519694667e-01  2.8091166155044794e-01  2.8568822671958960e-01  2.8925866779649628e-01  2.8530242835058728e-01  2.9296645293216916e-01  2.8982944809446232e-01  2.9690387303792776e-01  3.0042363001242695e-01  3.0368200319151983e-01  3.0094323024986563e-01  3.0724876897620551e-01  2.5453221620006056e-01  3.0513586282505256e-01  3.1097493830589035e-01  9.6538326809823521e-02  3.0131006728146442e-01  2.7631624201243615e-01  1.1900575939983002e-01  3.0935990367176036e-01  3.1497874029973527e-01  3.1653323362696434e-01  3.2050183918473951e-01  3.1892163902912568e-01  3.2431957534912476e-01  3.2600541806873984e-01  3.2955736321389961e-01  3.2824693316903714e-01  3.3324645365095223e-01  1.7826752647705560e-01  3.3227012259870620e-01  3.3713143334760631e-01  3.0740062413837121e-01  2.3121554014059392e-01  3.9455354892336325e-01  1.9832482919460373e-01  3.3814205103238570e-01  3.4187008103305166e-01  3.4111583948962576e-01  3.4570554686383215e-01  2.7028423484730635e-01  2.4733337619851378e-01  2.6801724047797415e-01  2.4969575251837572e-01  2.6499109455641662e-01  2.5127510277168386e-01  3.4534728384810204e-01  3.4974785648392442e-01  4.4006846510684233e-01  3.5023642885233480e-01  3.5414712174116036e-01  3.5372738954135075e-01  3.5811926416572565e-01  4.2799655118301555e-01  3.4403943012831323e-01  2.5840972185971872e-01  2.7121309930539961e-01  2.6078392333958056e-01  2.5093237060628315e-01  2.8297850797373386e-01  2.3364824666546263e-01  2.4273332543459586e-01  2.4571857675482153e-01  2.4825310825570829e-01  2.4541444074288785e-01  2.4315191799535465e-01  2.4197679715934148e-01  2.3576847457560743e-01  2.3575264408501095e-01  2.2637067979800801e-01  2.2720233647830121e-01  2.1515226636057391e-01  2.1663137157890175e-01  2.0257911638149645e-01  2.0513698591175136e-01  1.8950473113926625e-01  1.9339648859240613e-01  1.7725775737374239e-01  1.8231620399589046e-01  1.6660640782255348e-01  1.7240621218044122e-01  1.5786349530240729e-01  1.6406959545804681e-01  1.5153080379938608e-01  1.5690763585756243e-01  3.5789795737613489e-01  3.6220716572003625e-01  3.6264791454185175e-01  3.6653792855334588e-01  3.6641507749832708e-01  3.7064923813221146e-01  1.4731643804265870e-01  1.5054503572624256e-01  1.4425182206450846e-01  1.4359092252705341e-01  1.4039331800324770e-01  1.3523778691464960e-01  2.2285618721517420e-01  3.7053788622634670e-01  3.7490709580359960e-01  3.7504835428455319e-01  3.7926354081784247e-01  2.8298578304726207e-01  2.8781503292365951e-01  3.7924197338134574e-01  3.8351197150223698e-01  3.8348776503940973e-01  3.8778198500400801e-01  3.8783671752253451e-01  3.921052725121