<?xml version="1.0"?>
<VTKFile type="UnstructuredGrid"  version="0.1"  >
<UnstructuredGrid>
<Piece  NumberOfPoints="2945" NumberOfCells="5525">
<Points>
<DataArray  type="Float64"  NumberOfComponents="3"  format="ascii">0 0.1 0  0.95 0.1 0  1 0.1 0  1 0 0  1.5 0 0  3 0 0  3 0.3 0  0 0.3 0  0.0197424558707114 0.1 0  0.03915669042224804 0.1 0  0.05824816022699029 0.1 0  0.07702223050332387 0.1 0  0.09548417327144595 0.1 0  0.1136391897583987 0.1 0  0.1314923700144587 0.1 0  0.1490487330862866 0.1 0  0.1663132263225292 0.1 0  0.1832906857273058 0.1 0  0.1999858946008978 0.1 0  0.216403545770297 0.1 0  0.2325482404045023 0.1 0  0.2484245348165176 0.1 0  0.2640368740372501 0.1 0  0.2793896589642241 0.1 0  0.2944872056237027 0.1 0  0.3093337469555254 0.1 0  0.3239334613687816 0.1 0  0.3382904528528069 0.1 0  0.3524087553122972 0.1 0  0.3662923366391824 0.1 0  0.3799451014768399 0.1 0  0.393370886920506 0.1 0  0.4065734648871676 0.1 0  0.419556546320114 0.1 0  0.4323237821343415 0.1 0  0.4448787573056132 0.1 0  0.4572250047274954 0.1 0  0.4693659926332938 0.1 0  0.4813051343276231 0.1 0  0.4930457849308193 0.1 0  0.5045912455271677 0.1 0  0.5159447600209797 0.1 0  0.5271095174127136 0.1 0  0.5380886618453393 0.1 0  0.5488852725463512 0.1 0  0.5595023868312478 0.1 0  0.5699429904313016 0.1 0  0.5802100167387366 0.1 0  0.5903063508274641 0.1 0  0.6002348329443006 0.1 0  0.6099982499579832 0.1 0  0.6195993483501782 0.1 0  0.6290408246013842 0.1 0  0.6383253354321616 0.1 0  0.6474554910757137 0.1 0  0.6564338522440513 0.1 0  0.6652629482939147 0.1 0  0.6739452579188948 0.1 0  0.6824832240165607 0.1 0  0.6908792415022103 0.1 0  0.6991356755989045 0.1 0  0.7072548438546967 0.1 0  0.7152390281534421 0.1 0  0.7230904746196039 0.1 0  0.7308113906759266 0.1 0  0.7384039435269326 0.1 0  0.7458702676581656 0.1 0  0.7532124631720397 0.1 0  0.7604325921167397 0.1 0  0.7675326856666862 0.1 0  0.7745147374421916 0.1 0  0.7813807123989068 0.1 0  0.7881325374362798 0.1 0  0.7947721131625659 0.1 0  0.8013013031866276 0.1 0  0.8077219449067021 0.1 0  0.8140358419942376 0.1 0  0.8202447685401882 0.1 0  0.8263504700910924 0.1 0  0.8323546643163114 0.1 0  0.8382590362474568 0.1 0  0.8440652473522128 0.1 0  0.8497749272799842 0.1 0  0.8553896837646281 0.1 0  0.8609110933285474 0.1 0  0.866340708855119 0.1 0  0.8716800550492284 0.1 0  0.8769306339052932 0.1 0  0.8820939206038667 0.1 0  0.8871713655604893 0.1 0  0.8921643975475726 0.1 0  0.8970744196575535 0.1 0  0.9019028106970642 0.1 0  0.9066509291259979 0.1 0  0.9113201098984042 0.1 0  0.9159116634553873 0.1 0  0.9204268818729691 0.1 0  0.9248670319440222 0.1 0  0.9292333656649013 0.1 0  0.9335271075812669 0.1 0  0.9377494640511216 0.1 0  0.941901623463222 0.1 0  0.9459847526686701 0.1 0  0.9538461538461205 0.1 0  0.9576923076922409 0.1 0  0.9615384615384381 0.1 0  0.9653846153846337 0.1 0  0.9692307692307542 0.1 0  0.9730769230768747 0.1 0  0.9769230769229952 0.1 0  0.9807692307691157 0.1 0  0.9846153846152361 0.1 0  0.9884615384614317 0.1 0  0.9923076923076356 0.1 0  0.9961538461538395 0.1 0  1 0.09591793123533533 0  1 0.09133596463859224 0  1 0.08619288104391448 0  1 0.08041996484521211 0  1 0.07394008421771697 0  1 0.06666666567302955 0  1 0.05850252932209174 0  1 0.04933859630113544 0  1 0.03905242821848202 0  1 0.02750659386753798 0  1 0.01454683679239736 0  1.015625 0 0  1.03125 0 0  1.046875 0 0  1.0625 0 0  1.078125 0 0  1.09375 0 0  1.109375 0 0  1.125 0 0  1.140625 0 0  1.15625 0 0  1.171875 0 0  1.1875 0 0  1.203125 0 0  1.21875 0 0  1.234375 0 0  1.25 0 0  1.265625 0 0  1.28125 0 0  1.296875 0 0  1.3125 0 0  1.328125 0 0  1.34375 0 0  1.359375 0 0  1.375 0 0  1.390625 0 0  1.40625 0 0  1.421875 0 0  1.4375 0 0  1.453125 0 0  1.46875 0 0  1.484375 0 0  1.515920751924515 0 0  1.531989369316721 0 0  1.54820720925872 0 0  1.564575665560501 0 0  1.581096138674279 0 0  1.597770029901263 0 0  1.614598783332311 0 0  1.631583831055205 0 0  1.64872661129721 0 0  1.666028606716533 0 0  1.683491276608443 0 0  1.701116134125304 0 0  1.718904673324128 0 0  1.736858414799339 0 0  1.754978895814663 0 0  1.773267661782904 0 0  1.791726281103402 0 0  1.810356325314689 0 0  1.8291593848892 0 0  1.848137076690385 0 0  1.867291007717254 0 0  1.886622833871288 0 0  1.90613418642363 0 0  1.925826753299799 0 0  1.945702199101513 0 0  1.96576223584749 0 0  1.986008569283268 0 0  2.006442931928877 0 0  2.02706707547783 0 0  2.047882750887917 0 0  2.06889175187935 0 0  2.090095860038271 0 0  2.111496891648636 0 0  2.133096679109554 0 0  2.154897066851056 0 0  2.176899916687499 0 0  2.199107102752146 0 0  2.22152053937028 0 0  2.244142122958061 0 0  2.266973806444078 0 0  2.290017523268154 0 0  2.313275249499252 0 0  2.336748971745516 0 0  2.360440702338606 0 0  2.384352453384031 0 0  2.408486280477412 0 0  2.432844240041185 0 0  2.457428414757088 0 0  2.482240901796653 0 0  2.507283830121838 0 0  2.532559332080812 0 0  2.558069568787417 0 0  2.583816724966441 0 0  2.60980299606584 0 0  2.636030600971886 0 0  2.662501790984011 0 0  2.689218818279327 0 0  2.716183964547616 0 0  2.743399548861297 0 0  2.77086788244719 0 0  2.798591312896326 0 0  2.826572223178268 0 0  2.854812990138617 0 0  2.883316031690714 0 0  2.912083780657189 0 0  2.941118704633482 0 0  2.970423276998917 0 0  3 0.02999999999994495 0  3 0.05999999999987042 0  3 0.089999999999783 0  3 0.119999999999701 0  3 0.149999999999619 0  3 0.179999999999692 0  3 0.2099999999997737 0  3 0.2399999999998511 0  3 0.2699999999999185 0  2.970138294777171 0.3 0  2.940375666438236 0.3 0  2.910711782853056 0.3 0  2.881146331305122 0.3 0  2.851678975030285 0.3 0  2.822309388626621 0.3 0  2.793037250095074 0.3 0  2.76386223529133 0.3 0  2.734784017903872 0.3 0  2.705802289276642 0.3 0  2.676916713794697 0.3 0  2.648126987654635 0.3 0  2.619432780406184 0.3 0  2.590833779385199 0.3 0  2.562329669847737 0.3 0  2.533920134950189 0.3 0  2.505604855727852 0.3 0  2.477383539822502 0.3 0  2.449255847639465 0.3 0  2.421221492569094 0.3 0  2.393280152486815 0.3 0  2.36543151914496 0.3 0  2.337675285481809 0.3 0  2.310011142385583 0.3 0  2.282438797441587 0.3 0  2.254957931061538 0.3 0  2.227568248063605 0.3 0  2.200269436651085 0.3 0  2.173061204949961 0.3 0  2.145943251515011 0.3 0  2.118915272469994 0.3 0  2.091976978084957 0.3 0  2.065128060700849 0.3 0  2.038368218849433 0.3 0  2.01169717777258 0.3 0  1.985114624111908 0.3 0  1.958620267850966 0.3 0  1.93221382054972 0.3 0  1.905894991850698 0.3 0  1.879663489459713 0.3 0  1.853519019126419 0.3 0  1.827461291053897 0.3 0  1.801490031354372 0.3 0  1.775604937580312 0.3 0  1.74980572560258 0.3 0  1.724092118631866 0.3 0  1.698463829173586 0.3 0  1.672920575782554 0.3 0  1.647462076974085 0.3 0  1.622088043536933 0.3 0  1.5967981978949 0.3 0  1.571592267767068 0.3 0  1.546469970305736 0.3 0  1.521431023814044 0.3 0  1.496475156230927 0.3 0  1.471602093687753 0.3 0  1.446811560490646 0.3 0  1.422103279101731 0.3 0  1.397476971708191 0.3 0  1.37293238939876 0.3 0  1.348469231419202 0.3 0  1.324087248732772 0.3 0  1.299786165921677 0.3 0  1.275565710847046 0.3 0  1.251425617644257 0.3 0  1.227365618676339 0.3 0  1.203385446174014 0.3 0  1.179484853067473 0.3 0  1.155663548773374 0.3 0  1.131921292279077 0.3 0  1.108257802159295 0.3 0  1.084672829009693 0.3 0  1.061166115303374 0.3 0  1.037737392995421 0.3 0  1.01438640299116 0.3 0  0.991112899770314 0.3 0  0.9679166155523955 0.3 0  0.944797284182564 0.3 0  0.921754678526042 0.3 0  0.8987885143602501 0.3 0  0.8758985548820624 0.3 0  0.8530845484099929 0.3 0  0.8303462351786988 0.3 0  0.8076833651172373 0.3 0  0.7850956864865304 0.3 0  0.7625829601354557 0.3 0  0.7401449314598274 0.3 0  0.717781337993959 0.3 0  0.6954919649675473 0.3 0  0.6732765357561226 0.3 0  0.6511348120768439 0.3 0  0.6290665642016573 0.3 0  0.6070715355430467 0.3 0  0.5851494825775325 0.3 0  0.5633001690203812 0.3 0  0.5415233562273221 0.3 0  0.5198187909431873 0.3 0  0.4981862401387795 0.3 0  0.4766254686134248 0.3 0  0.4551362360485234 0.3 0  0.4337182975262159 0.3 0  0.4123714223228037 0.3 0  0.3910953802377493 0.3 0  0.3698899313205595 0.3 0  0.3487548463710963 0.3 0  0.3276898864081783 0.3 0  0.3066948129116018 0.3 0  0.2857694003037476 0.3 0  0.2649134227095047 0.3 0  0.2441266417321288 0.3 0  0.2234088223399122 0.3 0  0.2027597568977288 0.3 0  0.1821792020676698 0.3 0  0.1616669305402443 0.3 0  0.1412227158799362 0.3 0  0.12084633013886 0.3 0  0.1005375673448281 0.3 0  0.08029618164595353 0.3 0  0.06012194778526769 0.3 0  0.04001466495039718 0.3 0  0.01997408913631205 0.3 0  0 0.2800000000000553 0  0 0.2600000000001105 0  0 0.2400000000001658 0  0 0.2200000000002211 0  0 0.2000000000002764 0  0 0.1800000000002244 0  0 0.1600000000001691 0  0 0.140000000000115 0  0 0.1200000000000564 0  1.133778471000506 0.01219539743990768 0  1.003741919047894 0.09354664821474232 0  0.9559421147150347 0.1035858189992458 0  0.9313792160389045 0.1037365237938103 0  0.9788461538460573 0.1033060829993555 0  0.9090102438250753 0.1037269304984056 0  0.8846304212778655 0.1043349840723655 0  0.8581503885465881 0.104741932962923 0  0.8286416220145676 0.1052762843984476 0  0.7982741772533339 0.1053575624517407 0  0.7708789559342691 0.1060290465840416 0  0.741870349714261 0.1078220590984258 0  0.7112469360040695 0.10685702926368 0  0.6783901541417233 0.1079959711853378 0  0.642884733623195 0.1075561996086514 0  0.6056235042367955 0.1085956039602543 0  0.5647007593786924 0.1083187281660325 0  1.1953125 0.01353164693413185 0  1.258148737344733 0.01268350115427042 0  1.320087046516829 0.01426312402966312 0  1.383495130751951 0.01432665475473204 0  1.4453125 0.01315663539200989 0  1.50886768312388 0.01395488397722681 0  0.9942307692307371 0.103330866937657 0  1.119309781943483 0.2802014914557878 0  1.572831235329714 0.01707210522554785 0  1.637611634353954 0.01209340368483431 0  1.709661292005932 0.0146870244871893 0  1.006561890631532 0.07068055446055937 0  1.784793444007901 0.01499371444634687 0  1.855459587353174 0.0
[...]
<PointData  Scalars="pressure"> 
<DataArray  type="Float64"  Name="pressure"  format="ascii">1.4717716165039366e-01  -2.0421722978732990e-01  -8.9673435925545039e-02  -3.7409699380934941e-02  5.0100061524918173e-02  0.0000000000000000e+00  0.0000000000000000e+00  1.4720215572544426e-01  1.4125444879364735e-01  1.3542992829531575e-01  1.2970188475503444e-01  1.2406866945374778e-01  1.1852860947709233e-01  1.1308015724062226e-01  1.0772170378804605e-01  1.0245164712169411e-01  9.7268550839485907e-02  9.2170721181982412e-02  8.7156676873292718e-02  8.2225006845161513e-02  7.7374101060879955e-02  7.2602549118629317e-02  6.7908780211525702e-02  6.3291397392086973e-02  5.8748801905594908e-02  5.4279667670936810e-02  4.9882373453722546e-02  4.5555612800707815e-02  4.1297623591599504e-02  3.7107132626261009e-02  3.2983047767679068e-02  2.8923087806082017e-02  2.4926219067758118e-02  2.0990719222834974e-02  1.7115372232950583e-02  1.3298373080610392e-02  9.5382153186646165e-03  5.8333991003050234e-03  2.1822960424699648e-03  -1.4161148102214882e-03  -4.9645609216211846e-03  -8.4640166454663900e-03  -1.1916035872185671e-02  -1.5322356346488531e-02  -1.8684935864825253e-02  -2.2005101423935299e-02  -2.5284827750669710e-02  -2.8525648280876427e-02  -3.1729698249021027e-02  -3.4898511614435357e-02  -3.8033886922465773e-02  -4.1137555465949320e-02  -4.4211671009568458e-02  -4.7257698531342457e-02  -5.0278071143001091e-02  -5.3274221152991214e-02  -5.6248224503551623e-02  -5.9202585703210318e-02  -6.2138363427340290e-02  -6.5058209586361715e-02  -6.7964809045868615e-02  -7.0857683454029971e-02  -7.3741141856942069e-02  -7.6616983385536810e-02  -7.9486391724874678e-02  -8.2354386696325874e-02  -8.5219421500623851e-02  -8.8083570905846259e-02  -9.0952172035562287e-02  -9.3825990591908853e-02  -9.6709043110052448e-02  -9.9600153452493470e-02  -1.0250169569880793e-01  -1.0542082815762140e-01  -1.0835663995280206e-01  -1.1131271714202144e-01  -1.1429162615432778e-01  -1.1729642142774625e-01  -1.2032925402224962e-01  -1.2339461942140460e-01  -1.2649357838531541e-01  -1.2963012851168487e-01  -1.3281055624009999e-01  -1.3603724866760664e-01  -1.3931303083371713e-01  -1.4264503025501801e-01  -1.4603729391569312e-01  -1.4949457463454804e-01  -1.5302242900501423e-01  -1.5663624082332617e-01  -1.6033460116189038e-01  -1.6413034572677024e-01  -1.6803290275455862e-01  -1.7206133452376246e-01  -1.7622582470282736e-01  -1.8054356024847501e-01  -1.8505458540489983e-01  -1.8977246719995108e-01  -1.9473070826096447e-01  -2.0000550065231781e-01  -2.0566305003055235e-01  -2.1131005025469504e-01  -2.2111165188150023e-01  -2.3710320391590428e-01  -2.6028767735180997e-01  -2.6475380433053392e-01  -2.5864917161334433e-01  -2.4356177533047224e-01  -2.2270848052868614e-01  -1.9808693334620589e-01  -1.7191233838236497e-01  -1.4557188808962354e-01  -1.2036421506638981e-01  -9.9373029872012131e-02  -6.8847392440492650e-02  -9.2816711573404792e-02  -6.5583563672008904e-02  -5.7289573718324840e-02  -5.0948264743333312e-02  -4.6692334774633644e-02  -4.3446176211290197e-02  -4.0881401144439319e-02  -3.8950767687677607e-02  -3.7627636482205074e-02  -3.6957997055851004e-02  -3.7065438675059292e-02  -3.7841201198016067e-02  -3.7793925695639219e-02  -3.6843044209400461e-02  -3.5150326299410506e-02  -3.2855379712293048e-02  -3.0131101403424530e-02  -2.7130845150489292e-02  -2.3990154645851958e-02  -2.0928612144341097e-02  -1.8140345090333385e-02  -1.5794920437560332e-02  -1.4032180620795741e-02  -1.2955986033345213e-02  -1.2631681446759751e-02  -1.3067625843116566e-02  -1.4174608404859370e-02  -1.5812460104771053e-02  -1.7827154587601243e-02  -1.9951273142642480e-02  -2.1732737132434968e-02  -2.3180738148064418e-02  -2.3509018349615531e-02  -2.2704811000379705e-02  -2.0381387345088934e-02  -1.6446409866105374e-02  -1.0590644827454454e-02  -3.1098862003951446e-03  5.9136168428258629e-03  1.6144080103969487e-02  2.7213412162296904e-02  3.8681467443300477e-02  6.1249368383919395e-02  7.1590518884345797e-02  8.0820425562453960e-02  8.8584282593465222e-02  9.4902323489396201e-02  9.9562048178197304e-02  1.0264080315674545e-01  1.0416072116187373e-01  1.0419267141012990e-01  1.0295838237516720e-01  1.0062750688617621e-01  9.7361767812224081e-02  9.3306130575219040e-02  8.8649371963594306e-02  8.3532271515197459e-02  7.8122699540165416e-02  7.2587530699511155e-02  6.7165860454145840e-02  6.1855994330907015e-02  5.7130391802266450e-02  5.3013527858198732e-02  4.9772400970201851e-02  4.7644498049636982e-02  4.6709060997872622e-02  4.7119042844929036e-02  4.8765703216179040e-02  5.1567616862448401e-02  5.5369978604386187e-02  5.9828292756911795e-02  6.4584767782815203e-02  6.9297337494666877e-02  7.3576303034003102e-02  7.7108955930974388e-02  7.9654454569631133e-02  8.1065108584902693e-02  8.1280002240242677e-02  8.0317995103950587e-02  7.8274225750749091e-02  7.5267181471590616e-02  7.1473482226286522e-02  6.7072721293763474e-02  6.2259632628829963e-02  5.7223698621034672e-02  5.2171177537327265e-02  4.7294740911147250e-02  4.2798545333987623e-02  3.8835090244000704e-02  3.5528028956966780e-02  3.2956637775524808e-02  3.1154752239924900e-02  2.9987586995615427e-02  2.9354685986141837e-02  2.9079126028956275e-02  2.8924070822809650e-02  2.8702241986125577e-02  2.8243008059729013e-02  2.7420105015555439e-02  2.6143219202290784e-02  2.4436145348407271e-02  2.2325094495859989e-02  1.9884219599485654e-02  1.7162901754561165e-02  1.4314870209938218e-02  1.1401261865231221e-02  8.4880582734469349e-03  5.6509074809611547e-03  2.8170500974142652e-03  0.0000000000000000e+00  0.0000000000000000e+00  0.0000000000000000e+00  0.0000000000000000e+00  0.0000000000000000e+00  0.0000000000000000e+00  0.0000000000000000e+00  0.0000000000000000e+00  0.0000000000000000e+00  2.8297192224117284e-03  5.3864972307554075e-03  7.8495180292823992e-03  1.0148203633503885e-02  1.2340577827448729e-02  1.4507922261461000e-02  1.6752517533862168e-02  1.9184083495754345e-02  2.1905593923404524e-02  2.4991029957209841e-02  2.8463702476087985e-02  3.2276454950469768e-02  3.6305642746592828e-02  4.0360891411607501e-02  4.4184683388957403e-02  4.7482454917382899e-02  4.9971756666250450e-02  5.1372937821380180e-02  5.1512486976826866e-02  5.0330732529184088e-02  4.7931150708171694e-02  4.4603312528932147e-02  4.0805041690030602e-02  3.7110459226416259e-02  3.4119132945326418e-02  3.2347687802182210e-02  3.2184145116507856e-02  3.3751350120566785e-02  3.6962173367130403e-02  4.1537485023918810e-02  4.7100537469564357e-02  5.3240918476689533e-02  5.9751132783702733e-02  6.6108818950659121e-02  7.2327585998084656e-02  7.8272487846009181e-02  8.3684779913599516e-02  8.8382292433855036e-02  9.1994323779646919e-02  9.4406027790566130e-02  9.4952148037582271e-02  9.3412592780656153e-02  8.9513739173686269e-02  8.3110007746324530e-02  7.4345834202701550e-02  6.3700563667534363e-02  5.1940987494154454e-02  4.0124668688747790e-02  2.9194725829824342e-02  2.0112130931326622e-02  1.3526072890343540e-02  9.5366622161614997e-03  7.9290326187900530e-03  7.8399074246635839e-03  8.7675413793857990e-03  9.8914867853153558e-03  1.0684146974554110e-02  1.0753556585377881e-02  9.9185885765524784e-03  8.0837347875510855e-03  5.2544441424869463e-03  1.4458147830645445e-03  -3.1745792071061160e-03  -8.5571834584452031e-03  -1.4528795560719846e-02  -2.0920215425363549e-02  -2.7593435862002927e-02  -3.4389642699136413e-02  -4.1179402222631223e-02  -4.7881831514473963e-02  -5.4340597455409326e-02  -6.0597178838215901e-02  -6.6512113033716666e-02  -7.1998505189772619e-02  -7.6811955027106707e-02  -8.1045513867659166e-02  -8.4316836267785814e-02  -8.6683151651703955e-02  -8.8242737614716502e-02  -8.8438442385510865e-02  -8.7653464126044328e-02  -8.5896928984713850e-02  -8.3382194524416378e-02  -8.0137243554439741e-02  -7.6234327611610364e-02  -7.1794499336057471e-02  -6.6970469654138026e-02  -6.1809840863128025e-02  -5.6341087326832691e-02  -5.0680914219127446e-02  -4.4835289425729161e-02  -3.8864657304613727e-02  -3.2790505693358243e-02  -2.6631745854781990e-02  -2.0409840017930295e-02  -1.4149431154777146e-02  -7.8552943728182889e-03  -1.5388813907510760e-03  4.7903422135920307e-03  1.1123263911627350e-02  1.7455905499069869e-02  2.3787419472216638e-02  3.0110709015857919e-02  3.6424741560997557e-02  4.2726237767358642e-02  4.9014718554888551e-02  5.5288550436550885e-02  6.1545381069063529e-02  6.7786328872861706e-02  7.4008854552607362e-02  8.0213714392250002e-02  8.6400034331084397e-02  9.2567273575735631e-02  9.8715697932361290e-02  1.0484477198585890e-01  1.1095446899805335e-01  1.1704469510418049e-01  1.2311538493781211e-01  1.2916651163982251e-01  1.3519804016229300e-01  1.4120993078202382e-01  1.4720208564303039e-01  1.4720105429644814e-01  1.4719848649968853e-01  1.4719450568403031e-01  1.4718966457941374e-01  1.4718483117983219e-01  1.4718083556251127e-01  1.4717828743493327e-01  1.4717725150001865e-01  -2.2270443269128755e-02  -6.8513566085382629e-02  -2.5495852095676946e-01  -1.9825364054513639e-01  -1.7887956938477947e-01  -1.7462701582125756e-01  -1.5515684012075645e-01  -1.3791214634265106e-01  -1.2167917461842029e-01  -1.0712328850486505e-01  -9.5311125720425716e-02  -8.3777123809026577e-02  -7.2360754776700967e-02  -6.0780278033130887e-02  -4.8798452159840536e-02  -3.6652964817780520e-02  -2.3653012080861319e-02  -1.3351810228678762e-02  -1.4569319787713395e-02  -2.1983162091846285e-02  -1.8447950039155579e-02  1.0114622443268032e-02  5.5250815081671199e-02  -8.4208604862516800e-02  -5.0833809026132874e-02  9.1059489638659716e-02  1.0389132143256048e-01  9.5522858950006895e-02  -4.5621170366022971e-02  7.4981172730009676e-02  5.5740162447123633e-02  -1.0308325357308374e-02  4.6569076883078035e-02  -2.3911291623216313e-02  -1.8784195552366340e-04  5.7783861797750524e-02  1.1088735502097241e-02  4.2136914453428749e-03  8.1239298837843255e-03  7.4674757297179470e-02  1.8382806675314910e-02  -3.1232043923697626e-02  8.0746952879003506e-02  3.3656105538983093e-02  -6.8347019970176268e-02  3.4580805182017525e-02  6.9510311957762694e-02  9.1658425474548014e-02  5.2376322657433444e-02  9.3752379390922777e-02  4.9941009627866462e-02  8.1075207038016836e-02  -8.4570284247363861e-02  3.3907261215294394e-02  7.0254816686658547e-02  6.3183556699061422e-02  -8.7632528378502966e-02  -8.1285665164919654e-02  4.4451468727643342e-02  2.9023668145317399e-02  9.0160959071834051e-02  1.0496880596686912e-01  6.8502479211588460e-02  2.8403785944787551e-02  2.5133944863381382e-02  -6.4587521608474488e-02  3.2649189556751085e-02  3.8608706596935140e-02  -4.7508812703724146e-02  -2.1554940046598225e-01  -2.4781863190979472e-01  -2.9863438081758124e-02  4.8938331247496997e-02  1.8662550668453081e-02  -5.5509215872796870e-03  4.8857931717924713e-02  2.6776690665291866e-02  3.8414209340418580e-02  5.8417993326770279e-02  2.6675160035167334e-02  7.7010154303806408e-02  1.1386914298739965e-01  9.5786911491031801e-02  1.7851206886866797e-02  1.4214544955629896e-01  2.5527686943961291e-03  1.2148818889698181e-01  -3.8799974154132180e-02  1.1374140575718233e-02  9.7078613268673942e-03  -5.3144912157696567e-02  -3.5738362034338250e-02  -7.7729428475924844e-02  -3.7604307788347932e-02  -7.4048577423173334e-02  -1.7228270563730601e-02  7.6562122637954082e-03  4.0313246142950697e-02  1.1142373764818124e-02  1.1012155519475661e-02  7.6033385593288743e-03  -1.1112496497609852e-02  7.9798933728827834e-02  6.1100280318006912e-02  3.2648345536476706e-02  5.1468320276815374e-02  4.3890581940091745e-02  3.0430805115266100e-02  1.2604433460637002e-01  4.0687308127187100e-02  6.0002424647678236e-02  2.6615181959610438e-02  7.6892680652405246e-02  1.4211921090431043e-01  8.0036290874855198e-02  1.1513844200833210e-02  6.5722358901567704e-02  4.9943849122367601e-02  7.5314784254710193e-02  4.8904782538393456e-02  -3.3341176180469909e-03  6.4808784754579615e-02  8.6322274478068103e-02  1.0188920830131931e-01  -1.7130139298463364e-02  1.0082228479065702e-01  2.0777210698137015e-03  -3.0144136858913585e-02  -4.2741182325700858e-02  -5.5053616315216949e-02  -6.6228946526964524e-02  -7.8311864070565701e-02  -8.9620327897598787e-02  -1.0145572099569444e-01  -1.1594155854095724e-01  -1.6797911640558449e-02  -1.3141920721325787e-01  -1.4815950807972864e-01  -1.6650217382996541e-01  -1.2543563196672798e-02  -1.8732615503582131e-01  -2.3020835851354216e-02  -1.8534152194000515e-02  -8.5631173016117515e-03  3.1898231761581568e-02  1.4253430727848337e-01  -1.2636755105192646e-01  2.6421753252425483e-03  1.3252720938378776e-01  6.5778069563552522e-03  -3.7422150143582453e-02  2.1586346491672872e-03  1.4267852305569090e-01  -3.6899897917126855e-02  -3.6481674703690417e-02  -3.5285075674449703e-02  -3.6504094580404475e-02  -3.5247343866974194e-02  -3.6791584460061519e-02  -3.5258633791174776e-02  -3.7082701591806225e-02  -3.5246140191569360e-02  -3.7079286892338317e-02  -3.4850759666706359e-02  -3.6492847384508247e-02  -3.3797603492495373e-02  -3.5201892395067068e-02  -3.2106805369560849e-02  -3.3517868669700759e-02  -3.0003440712366831e-02  -3.1918731127047031e-02  -2.8272368249185633e-02  -3.1238942076453381e-02  -2.7328892806358977e-02  -3.5201944392500614e-02  -2.3835839135005775e-02  -2.3115915917647178e-02  -3.5491933722467457e-02  -3.9911728086374741e-02  -1.9365638378358117e-02  -1.8889837588936968e-02  -1.5241399876505581e-02  -1.5049950947859379e-02  -1.1248551260370498e-02  -1.1780404330305860e-02  -8.1501337603945220e-03  -9.3970600393389492e-03  -6.0830875262175392e-03  -8.5765952465679321e-03  -5.5700145153095328e-03  -7.9414515047176292e-03  -6.3914339184950944e-03  -8.8336950232420029e-03  -8.6234917000701412e-03  -1.0954007542422020e-02  -1.1993640841941430e-02  -1.3262415872944227e-02  -1.5894668642706059e-02  -1.5871062678503408e-02  -1.9778401617289894e-02  -1.7788828656365333e-02  -2.2837801133637689e-02  -1.8782490967356843e-02  -2.4017914574810263e-02  -4.0980413026626451e-02  -4.6141973234308790e-02  -1.8276885318968719e-02  -2.4117330023815300e-02  -1.6163724494457403e-02  -2.0229038622636496e-02  -1.1836454584899875e-02  -1.4711666164714464e-02  -5.9547020304146353e-03  -6.7979917245302992e-03  1.1804915936226481e-03  2.9118121436014330e-03  -2.3934603643822536e-02  8.9437650331956539e-03  1.3650503238810223e-02  1.6860487824378181e-02  2.4500531027850398e-02  2.4230300876168481e-02  3.4767027438533819e-02  -4.7418132243488544e-02  -5.3345331909107972e-02  -3.7937073541278600e-02  3.0839114633300139e-02  4.3990599323090532e-02  -4.5578562313169375e-02  3.6861513906753643e-02  5.1898107022105823e-02  4.1701467404674827e-02  5.8312244814179987e-02  4.6119147213523837e-02  6.3416390260133584e-02  -1.3753265348447691e-02  4.9227035639366014e-02  6.7245753176740600e-02  5.3628865994884027e-02  7.0431266740458590e-02  5.7653562045913216e-02  7.2810115766016315e-02  -3.0496037960432980e-02  -1.0154903280713301e-02  6.1701973356663033e-02  7.4589244070024915e-02  -5.4268227645638822e-02  -6.1375718511747265e-02  -4.8561524348597632e-02  -1.2520815304639740e-02  6.4918228756258856e-02  7.5902709483621905e-02  6.8844281817743241e-02  7.6578400309737837e-02  7.2432499118554219e-02  7.6593931127649617e-02  4.7450877820042592e-02  8.5118395668337010e-02  7.4900659232164823e-02  7.8427284069617267e-03  7.5435250614991498e-02  7.6204296361038773e-02  7.7830522941492883e-02  7.4583954824953225e-02  7.5354593101015138e-02  7.1237794794582698e-02  7.4142363327042438e-02  6.7872589868252162e-02  7.2725587356830129e-02  6.4871725256026011e-02  7.1301972698331856e-02  6.2373169707450285e-02  6.9903532323658757e-02  6.0516520491655852e-02  6.8964545954116829e-02  5.9483704009242709e-02  6.7936764698084059e-02  5.8686970574703276e-02  6.7141673351117884e-02  5.9012225784863655e-02  6.6463797230710511e-02  5.9665818033607800e-02  6.5884353097265758e-02  6.0544335706864419e-02  -2.1786464028317087e-02  -1.2383571937242509e-02  6.4697071335414053e-02  6.1225478888060417e-02  6.2997247871374742e-02  6.1400481759099193e-02  -8.7027529602495962e-03  6.0677848824955222e-02  6.0989035289617397e-02  -1.9077185754694390e-02  -6.3211418014851540e-03  -6.1016796699681790e-02  -6.8591956794204600e-02  -7.1089448218983622e-02  -7.7395066558662365e-02  -8.2033036074272592e-02  -8.7789177809474844e-02  -9.4349911935460717e-02  -9.8860688281191281e-02  -1.0816189725659385e-01  -1.0982217961067996e-01  -1.2182703271636905e-01  -1.1984303118407563e-01  -1.3423476026662312e-01  -1.2900591437300754e-01  -1.4642669560931784e-01  -1.3737710020181559e-01  -1.5083311559171786e-01  -1.4010556986023415e-01  -1.5338401041963079e-01  -1.4396016496105254e-01  -1.5383100258803742e-01  -1.4408905536328739e-01  -1.5214028221896247e-01  -1.4264719853252567e-01  -1.4906187841168600e-01  -1.4014538618656777e-01  -1.4519092766463626e-01  -1.3689013178509790e-01  -1.3470401849697877e-01  -1.3139652538321184e-01  -1.2867025830645523e-01  -1.3314353014765470e-01  -1.2556193034596486e-01  -1.2908249041648706e-01  -1.2211345278544411e-01  -1.2498684164603321e-01  -1.1848311563569854e-01  -1.1842465076736007e-01  -1.2162302861229943e-01  -1.1475982602946311e-01  -1.1634600204049750e-01  -1.1065097887064257e-01  -1.0859459559873634e-01  -1.0497038352295791e-01  -1.0653738009788274e-01  -1.0127008044718108e-01  -1.0222965695799857e-01  -9.7432257405951059e-02  -8.6386347153871085e-02  -9.7955720285613807e-02  -9.3512254075722598e-02  -9.2447560462841777e-02  -8.8829144678965563e-02  -8.9616382709321929e-02  -8.5139238243942206e-02  -8.5685298579016092e-02  -8.1395395104659429e-02  -1.5038388847937162e-01  -1.2512376311635412e-01  -1.1951328283203019e-01  -1.6329130982148155e-01  -8.1762494673566749e-02  -7.7584020983505572e-02  -7.7108151924581675e-02  -7.3399716950290794e-02  -7.3699935706379519e-02  -6.9648245824856819e-02  -6.9740368687957119e-02  -6.5810637213607165e-02  -6.5637834611890225e-02  -6.1923105243918641e-02  -6.1870016114721441e-02  -5.8105205854540432e-02  -1.0274643200238263e-01  -5.7876612416728569e-02  -5.4261429602227212e-02  -1.6219439136750374e-01  -9.8936415335850458e-02  -8.7639704285931458e-02  -1.5353196035478056e-01  -5.3922201857715395e-02  -5.0277828320597948e-02  -5.0838473801724279e-02  -4.6660443899724964e-02  -4.6351972947673251e-02  -4.2624468375340660e-02  -4.2924965894361622e-02  -3.8928516349682481e-02  -3.8565293192599708e-02  -3.4912459256808574e-02  -1.3148963909965322e-01  -3.4497265170825013e-02  -3.0807747242904124e-02  -6.1535768850387779e-02  -1.0620064696759110e-01  -2.9671368630820503e-03  -1.2161857326095812e-01  -3.1237556124450314e-02  -2.7139067697745659e-02  -2.6675481120427055e-02  -2.3027798745093454e-02  5.7712440858501683e-02  5.9699917755860560e-02  5.4146807919181944e-02  5.7759858530345695e-02  5.0312980404268737e-02  5.5243271812567628e-02  -2.2368027812688606e-02  -1.8786952890870182e-02  2.0812093371101101e-02  -1.9334695322055090e-02  -1.5135486428304288e-02  -1.4688248390926154e-02  -1.0951033841848368e-02  -3.8540568011462252e-02  -7.5796161128283940e-02  -8.9980079288765696e-02  5.4325521537290061e-02  4.6442289394783710e-02  5.2552615275646121e-02  7.7051921309076052e-02  5.5380151436487973e-02  6.2563185977403984e-02  6.0669810923763799e-02  4.9915808192244469e-02  5.8522575991564865e-02  4.7775728892262122e-02  5.6333069652666753e-02  4.6128482695051806e-02  5.4163800520510973e-02  4.5216153916895666e-02  5.2231648749829156e-02  4.4847122750938009e-02  5.0425608502060043e-02  4.4958444129279955e-02  4.8889452420575144e-02  4.5445707670633169e-02  4.7476151034344626e-02  4.6033544703145565e-02  4.6166635267649740e-02  4.6428949883889285e-02  4.4791070417503777e-02  4.6523719939838115e-02  4.3457944338804809e-02  4.6233961683536370e-02  4.2029287858723924e-02  -1.0469468247637106e-02  -6.7267536238262296e-03  -6.9531832233235037e-03  -2.8697895913577928e-03  -2.4239624601584630e-03  1.3765132920168343e-03  4.5473537503293616e-02  4.0630978198354449e-02  4.3919