<?xml version="1.0"?>
<VTKFile type="UnstructuredGrid"  version="0.1"  >
<UnstructuredGrid>
<Piece  NumberOfPoints="2945" NumberOfCells="5525">
<Points>
<DataArray  type="Float64"  NumberOfComponents="3"  format="ascii">0 0.1 0  0.95 0.1 0  1 0.1 0  1 0 0  1.5 0 0  3 0 0  3 0.3 0  0 0.3 0  0.0197424558707114 0.1 0  0.03915669042224804 0.1 0  0.05824816022699029 0.1 0  0.07702223050332387 0.1 0  0.09548417327144595 0.1 0  0.1136391897583987 0.1 0  0.1314923700144587 0.1 0  0.1490487330862866 0.1 0  0.1663132263225292 0.1 0  0.1832906857273058 0.1 0  0.1999858946008978 0.1 0  0.216403545770297 0.1 0  0.2325482404045023 0.1 0  0.2484245348165176 0.1 0  0.2640368740372501 0.1 0  0.2793896589642241 0.1 0  0.2944872056237027 0.1 0  0.3093337469555254 0.1 0  0.3239334613687816 0.1 0  0.3382904528528069 0.1 0  0.3524087553122972 0.1 0  0.3662923366391824 0.1 0  0.3799451014768399 0.1 0  0.393370886920506 0.1 0  0.4065734648871676 0.1 0  0.419556546320114 0.1 0  0.4323237821343415 0.1 0  0.4448787573056132 0.1 0  0.4572250047274954 0.1 0  0.4693659926332938 0.1 0  0.4813051343276231 0.1 0  0.4930457849308193 0.1 0  0.5045912455271677 0.1 0  0.5159447600209797 0.1 0  0.5271095174127136 0.1 0  0.5380886618453393 0.1 0  0.5488852725463512 0.1 0  0.5595023868312478 0.1 0  0.5699429904313016 0.1 0  0.5802100167387366 0.1 0  0.5903063508274641 0.1 0  0.6002348329443006 0.1 0  0.6099982499579832 0.1 0  0.6195993483501782 0.1 0  0.6290408246013842 0.1 0  0.6383253354321616 0.1 0  0.6474554910757137 0.1 0  0.6564338522440513 0.1 0  0.6652629482939147 0.1 0  0.6739452579188948 0.1 0  0.6824832240165607 0.1 0  0.6908792415022103 0.1 0  0.6991356755989045 0.1 0  0.7072548438546967 0.1 0  0.7152390281534421 0.1 0  0.7230904746196039 0.1 0  0.7308113906759266 0.1 0  0.7384039435269326 0.1 0  0.7458702676581656 0.1 0  0.7532124631720397 0.1 0  0.7604325921167397 0.1 0  0.7675326856666862 0.1 0  0.7745147374421916 0.1 0  0.7813807123989068 0.1 0  0.7881325374362798 0.1 0  0.7947721131625659 0.1 0  0.8013013031866276 0.1 0  0.8077219449067021 0.1 0  0.8140358419942376 0.1 0  0.8202447685401882 0.1 0  0.8263504700910924 0.1 0  0.8323546643163114 0.1 0  0.8382590362474568 0.1 0  0.8440652473522128 0.1 0  0.8497749272799842 0.1 0  0.8553896837646281 0.1 0  0.8609110933285474 0.1 0  0.866340708855119 0.1 0  0.8716800550492284 0.1 0  0.8769306339052932 0.1 0  0.8820939206038667 0.1 0  0.8871713655604893 0.1 0  0.8921643975475726 0.1 0  0.8970744196575535 0.1 0  0.9019028106970642 0.1 0  0.9066509291259979 0.1 0  0.9113201098984042 0.1 0  0.9159116634553873 0.1 0  0.9204268818729691 0.1 0  0.9248670319440222 0.1 0  0.9292333656649013 0.1 0  0.9335271075812669 0.1 0  0.9377494640511216 0.1 0  0.941901623463222 0.1 0  0.9459847526686701 0.1 0  0.9538461538461205 0.1 0  0.9576923076922409 0.1 0  0.9615384615384381 0.1 0  0.9653846153846337 0.1 0  0.9692307692307542 0.1 0  0.9730769230768747 0.1 0  0.9769230769229952 0.1 0  0.9807692307691157 0.1 0  0.9846153846152361 0.1 0  0.9884615384614317 0.1 0  0.9923076923076356 0.1 0  0.9961538461538395 0.1 0  1 0.09591793123533533 0  1 0.09133596463859224 0  1 0.08619288104391448 0  1 0.08041996484521211 0  1 0.07394008421771697 0  1 0.06666666567302955 0  1 0.05850252932209174 0  1 0.04933859630113544 0  1 0.03905242821848202 0  1 0.02750659386753798 0  1 0.01454683679239736 0  1.015625 0 0  1.03125 0 0  1.046875 0 0  1.0625 0 0  1.078125 0 0  1.09375 0 0  1.109375 0 0  1.125 0 0  1.140625 0 0  1.15625 0 0  1.171875 0 0  1.1875 0 0  1.203125 0 0  1.21875 0 0  1.234375 0 0  1.25 0 0  1.265625 0 0  1.28125 0 0  1.296875 0 0  1.3125 0 0  1.328125 0 0  1.34375 0 0  1.359375 0 0  1.375 0 0  1.390625 0 0  1.40625 0 0  1.421875 0 0  1.4375 0 0  1.453125 0 0  1.46875 0 0  1.484375 0 0  1.515920751924515 0 0  1.531989369316721 0 0  1.54820720925872 0 0  1.564575665560501 0 0  1.581096138674279 0 0  1.597770029901263 0 0  1.614598783332311 0 0  1.631583831055205 0 0  1.64872661129721 0 0  1.666028606716533 0 0  1.683491276608443 0 0  1.701116134125304 0 0  1.718904673324128 0 0  1.736858414799339 0 0  1.754978895814663 0 0  1.773267661782904 0 0  1.791726281103402 0 0  1.810356325314689 0 0  1.8291593848892 0 0  1.848137076690385 0 0  1.867291007717254 0 0  1.886622833871288 0 0  1.90613418642363 0 0  1.925826753299799 0 0  1.945702199101513 0 0  1.96576223584749 0 0  1.986008569283268 0 0  2.006442931928877 0 0  2.02706707547783 0 0  2.047882750887917 0 0  2.06889175187935 0 0  2.090095860038271 0 0  2.111496891648636 0 0  2.133096679109554 0 0  2.154897066851056 0 0  2.176899916687499 0 0  2.199107102752146 0 0  2.22152053937028 0 0  2.244142122958061 0 0  2.266973806444078 0 0  2.290017523268154 0 0  2.313275249499252 0 0  2.336748971745516 0 0  2.360440702338606 0 0  2.384352453384031 0 0  2.408486280477412 0 0  2.432844240041185 0 0  2.457428414757088 0 0  2.482240901796653 0 0  2.507283830121838 0 0  2.532559332080812 0 0  2.558069568787417 0 0  2.583816724966441 0 0  2.60980299606584 0 0  2.636030600971886 0 0  2.662501790984011 0 0  2.689218818279327 0 0  2.716183964547616 0 0  2.743399548861297 0 0  2.77086788244719 0 0  2.798591312896326 0 0  2.826572223178268 0 0  2.854812990138617 0 0  2.883316031690714 0 0  2.912083780657189 0 0  2.941118704633482 0 0  2.970423276998917 0 0  3 0.02999999999994495 0  3 0.05999999999987042 0  3 0.089999999999783 0  3 0.119999999999701 0  3 0.149999999999619 0  3 0.179999999999692 0  3 0.2099999999997737 0  3 0.2399999999998511 0  3 0.2699999999999185 0  2.970138294777171 0.3 0  2.940375666438236 0.3 0  2.910711782853056 0.3 0  2.881146331305122 0.3 0  2.851678975030285 0.3 0  2.822309388626621 0.3 0  2.793037250095074 0.3 0  2.76386223529133 0.3 0  2.734784017903872 0.3 0  2.705802289276642 0.3 0  2.676916713794697 0.3 0  2.648126987654635 0.3 0  2.619432780406184 0.3 0  2.590833779385199 0.3 0  2.562329669847737 0.3 0  2.533920134950189 0.3 0  2.505604855727852 0.3 0  2.477383539822502 0.3 0  2.449255847639465 0.3 0  2.421221492569094 0.3 0  2.393280152486815 0.3 0  2.36543151914496 0.3 0  2.337675285481809 0.3 0  2.310011142385583 0.3 0  2.282438797441587 0.3 0  2.254957931061538 0.3 0  2.227568248063605 0.3 0  2.200269436651085 0.3 0  2.173061204949961 0.3 0  2.145943251515011 0.3 0  2.118915272469994 0.3 0  2.091976978084957 0.3 0  2.065128060700849 0.3 0  2.038368218849433 0.3 0  2.01169717777258 0.3 0  1.985114624111908 0.3 0  1.958620267850966 0.3 0  1.93221382054972 0.3 0  1.905894991850698 0.3 0  1.879663489459713 0.3 0  1.853519019126419 0.3 0  1.827461291053897 0.3 0  1.801490031354372 0.3 0  1.775604937580312 0.3 0  1.74980572560258 0.3 0  1.724092118631866 0.3 0  1.698463829173586 0.3 0  1.672920575782554 0.3 0  1.647462076974085 0.3 0  1.622088043536933 0.3 0  1.5967981978949 0.3 0  1.571592267767068 0.3 0  1.546469970305736 0.3 0  1.521431023814044 0.3 0  1.496475156230927 0.3 0  1.471602093687753 0.3 0  1.446811560490646 0.3 0  1.422103279101731 0.3 0  1.397476971708191 0.3 0  1.37293238939876 0.3 0  1.348469231419202 0.3 0  1.324087248732772 0.3 0  1.299786165921677 0.3 0  1.275565710847046 0.3 0  1.251425617644257 0.3 0  1.227365618676339 0.3 0  1.203385446174014 0.3 0  1.179484853067473 0.3 0  1.155663548773374 0.3 0  1.131921292279077 0.3 0  1.108257802159295 0.3 0  1.084672829009693 0.3 0  1.061166115303374 0.3 0  1.037737392995421 0.3 0  1.01438640299116 0.3 0  0.991112899770314 0.3 0  0.9679166155523955 0.3 0  0.944797284182564 0.3 0  0.921754678526042 0.3 0  0.8987885143602501 0.3 0  0.8758985548820624 0.3 0  0.8530845484099929 0.3 0  0.8303462351786988 0.3 0  0.8076833651172373 0.3 0  0.7850956864865304 0.3 0  0.7625829601354557 0.3 0  0.7401449314598274 0.3 0  0.717781337993959 0.3 0  0.6954919649675473 0.3 0  0.6732765357561226 0.3 0  0.6511348120768439 0.3 0  0.6290665642016573 0.3 0  0.6070715355430467 0.3 0  0.5851494825775325 0.3 0  0.5633001690203812 0.3 0  0.5415233562273221 0.3 0  0.5198187909431873 0.3 0  0.4981862401387795 0.3 0  0.4766254686134248 0.3 0  0.4551362360485234 0.3 0  0.4337182975262159 0.3 0  0.4123714223228037 0.3 0  0.3910953802377493 0.3 0  0.3698899313205595 0.3 0  0.3487548463710963 0.3 0  0.3276898864081783 0.3 0  0.3066948129116018 0.3 0  0.2857694003037476 0.3 0  0.2649134227095047 0.3 0  0.2441266417321288 0.3 0  0.2234088223399122 0.3 0  0.2027597568977288 0.3 0  0.1821792020676698 0.3 0  0.1616669305402443 0.3 0  0.1412227158799362 0.3 0  0.12084633013886 0.3 0  0.1005375673448281 0.3 0  0.08029618164595353 0.3 0  0.06012194778526769 0.3 0  0.04001466495039718 0.3 0  0.01997408913631205 0.3 0  0 0.2800000000000553 0  0 0.2600000000001105 0  0 0.2400000000001658 0  0 0.2200000000002211 0  0 0.2000000000002764 0  0 0.1800000000002244 0  0 0.1600000000001691 0  0 0.140000000000115 0  0 0.1200000000000564 0  1.133778471000506 0.01219539743990768 0  1.003741919047894 0.09354664821474232 0  0.9559421147150347 0.1035858189992458 0  0.9313792160389045 0.1037365237938103 0  0.9788461538460573 0.1033060829993555 0  0.9090102438250753 0.1037269304984056 0  0.8846304212778655 0.1043349840723655 0  0.8581503885465881 0.104741932962923 0  0.8286416220145676 0.1052762843984476 0  0.7982741772533339 0.1053575624517407 0  0.7708789559342691 0.1060290465840416 0  0.741870349714261 0.1078220590984258 0  0.7112469360040695 0.10685702926368 0  0.6783901541417233 0.1079959711853378 0  0.642884733623195 0.1075561996086514 0  0.6056235042367955 0.1085956039602543 0  0.5647007593786924 0.1083187281660325 0  1.1953125 0.01353164693413185 0  1.258148737344733 0.01268350115427042 0  1.320087046516829 0.01426312402966312 0  1.383495130751951 0.01432665475473204 0  1.4453125 0.01315663539200989 0  1.50886768312388 0.01395488397722681 0  0.9942307692307371 0.103330866937657 0  1.119309781943483 0.2802014914557878 0  1.572831235329714 0.01707210522554785 0  1.637611634353954 0.01209340368483431 0  1.709661292005932 0.0146870244871893 0  1.006561890631532 0.07068055446055937 0  1.784793444007901 0.01499371444634687 0  1.855459587353174 0.0
[...]
<PointData  Scalars="pressure"> 
<DataArray  type="Float64"  Name="pressure"  format="ascii">-2.2231304047058059e-02  -3.5110919775569566e-01  -2.7845728892127036e-01  -2.4401368248840979e-01  -1.2879652854584825e-01  0.0000000000000000e+00  0.0000000000000000e+00  -2.2221460397066916e-02  -2.8154032753629238e-02  -3.3978410653562871e-02  -3.9706108012745087e-02  -4.5338752848720409e-02  -5.0877966844439348e-02  -5.6325306517300694e-02  -6.1682332778237162e-02  -6.6950602647669819e-02  -7.2131572156089049e-02  -7.7226805554041378e-02  -8.2237770416172959e-02  -8.7165870295488002e-02  -9.2012599295129477e-02  -9.6779350267873612e-02  -1.0146757300996663e-01  -1.0607863224053612e-01  -1.1061397551674380e-01  -1.1507490976540399e-01  -1.1946287881084827e-01  -1.2377916076635105e-01  -1.2802525736845990e-01  -1.3220242890130421e-01  -1.3631179066775650e-01  -1.4035511111440904e-01  -1.4433348571236942e-01  -1.4824839263529122e-01  -1.5210101263378542e-01  -1.5589273161923498e-01  -1.5962512758276468e-01  -1.6329921210017598e-01  -1.6691671928692883e-01  -1.7047836278009687e-01  -1.7398638982554165e-01  -1.7744172556720222e-01  -1.8084579586398269e-01  -1.8419997393980689e-01  -1.8750585390912566e-01  -1.9076472887760051e-01  -1.9397810466162196e-01  -1.9714743945962834e-01  -2.0027436656370179e-01  -2.0336022925701869e-01  -2.0640666309825628e-01  -2.0941502144150057e-01  -2.1238703670636638e-01  -2.1532416497635512e-01  -2.1822826723516914e-01  -2.2110064668987853e-01  -2.2394312248952822e-01  -2.2675724377894427e-01  -2.2954532469010078e-01  -2.3230737523004952e-01  -2.3504798637199262e-01  -2.3776554021735144e-01  -2.4046389741369897e-01  -2.4314446043865262e-01  -2.4580855652033567e-01  -2.4845928019453903e-01  -2.5109835662523883e-01  -2.5372420939895274e-01  -2.5634222344720875e-01  -2.5895444848090621e-01  -2.6156250349615517e-01  -2.6416786881994547e-01  -2.6676937367619807e-01  -2.6937498901781620e-01  -2.7198361851575514e-01  -2.7459824458679771e-01  -2.7722116252064172e-01  -2.7985422994662135e-01  -2.8249983774454246e-01  -2.8516153619239093e-01  -2.8784101785258848e-01  -2.9054007727896164e-01  -2.9326383410273177e-01  -2.9601559913378173e-01  -2.9879639796701035e-01  -3.0161135587195376e-01  -3.0446632671691859e-01  -3.0736263742630526e-01  -3.1030366877543902e-01  -3.1330308685320846e-01  -3.1635962023649655e-01  -3.1948272522064530e-01  -3.2267806411664157e-01  -3.2596174494823538e-01  -3.2933990550255055e-01  -3.3282497637394648e-01  -3.3644313326756753e-01  -3.4020964113162883e-01  -3.4414474306153997e-01  -3.4830017284402037e-01  -3.5272453768736306e-01  -3.5708479970458157e-01  -3.6452299872257771e-01  -3.7533644774984232e-01  -3.9438985921715219e-01  -4.0071978803502944e-01  -3.9993056723145204e-01  -3.9272496066076029e-01  -3.8100001939679889e-01  -3.6596051944141600e-01  -3.4898107647534232e-01  -3.3100281993899078e-01  -3.1289754360035216e-01  -2.9656024733848041e-01  -2.7373268739525053e-01  -2.7652335888533164e-01  -2.5851994426589370e-01  -2.5290314623573212e-01  -2.4891361369023327e-01  -2.4649052613707331e-01  -2.4485816989216624e-01  -2.4373374674961637e-01  -2.4307386341068077e-01  -2.4286269604765306e-01  -2.4309458554136143e-01  -2.4371016511616456e-01  -2.4440415050124620e-01  -2.4508897986699674e-01  -2.4554047332815135e-01  -2.4585571771165174e-01  -2.4610221705628599e-01  -2.4625457419410293e-01  -2.4621773277946071e-01  -2.4593207682924506e-01  -2.4532642269639465e-01  -2.4432273122623924e-01  -2.4286312664932638e-01  -2.4091147185758954e-01  -2.3843359226594837e-01  -2.3541670188966773e-01  -2.3186961112475832e-01  -2.2782059721477452e-01  -2.2329821023465041e-01  -2.1833698343423305e-01  -2.1298859531775993e-01  -2.0728232463750035e-01  -2.0129094342047707e-01  -1.9506170443085932e-01  -1.8862656228718727e-01  -1.8204928189158226e-01  -1.7536101817914498e-01  -1.6861875802244861e-01  -1.6184656651962837e-01  -1.5508503425189352e-01  -1.4837193058159814e-01  -1.4173448567750521e-01  -1.3520155853018803e-01  -1.2242553603519717e-01  -1.1618703292964738e-01  -1.1008453396239068e-01  -1.0416697126626280e-01  -9.8422936988155671e-02  -9.2891610760965651e-02  -8.7580792411645056e-02  -8.2497967349907941e-02  -7.7679242319530828e-02  -7.3106410061580529e-02  -6.8785223446153690e-02  -6.4719452294777352e-02  -6.0909105936439549e-02  -5.7348670067130202e-02  -5.4029485362276065e-02  -5.0942463242729580e-02  -4.8074867976655791e-02  -4.5425395653934518e-02  -4.2970929402864580e-02  -4.0693855361169970e-02  -3.8592361588024857e-02  -3.6641178693082518e-02  -3.4829144290441101e-02  -3.3142125211427981e-02  -3.1565626481238125e-02  -3.0083014630211815e-02  -2.8689287948719708e-02  -2.7367074593095692e-02  -2.6108971330187102e-02  -2.4908198170378492e-02  -2.3755211034047527e-02  -2.2642113146541624e-02  -2.1563643396079062e-02  -2.0516616566824773e-02  -1.9494270695139749e-02  -1.8496094365017743e-02  -1.7517763537270501e-02  -1.6560467498272054e-02  -1.5620689510426505e-02  -1.4699228821597739e-02  -1.3796214185637947e-02  -1.2912360599700254e-02  -1.2047132188441795e-02  -1.1202621971891761e-02  -1.0379222169385822e-02  -9.5811388627961066e-03  -8.8048322706728004e-03  -8.0529000404902899e-03  -7.3332589004518785e-03  -6.6416278789382223e-03  -5.9696461216912407e-03  -5.3466211875489219e-03  -4.7336525194960066e-03  -4.1769377072057544e-03  -3.6451862091773034e-03  -3.1377602658155600e-03  -2.6879240646957643e-03  -2.2515553001480138e-03  -1.8638099379476661e-03  -1.5156888176593769e-03  -1.2027807467085367e-03  -9.1486772878891830e-04  -6.5813496763826986e-04  -4.4783719601734816e-04  -2.9846210550771752e-04  -1.6196385098068156e-04  -4.0336882193236487e-05  0.0000000000000000e+00  0.0000000000000000e+00  0.0000000000000000e+00  0.0000000000000000e+00  0.0000000000000000e+00  0.0000000000000000e+00  0.0000000000000000e+00  0.0000000000000000e+00  0.0000000000000000e+00  7.1170248008747814e-05  9.5621566469794125e-05  3.3019863623843964e-05  -6.4457508420356796e-05  -1.9687549957283449e-04  -3.6959124252429346e-04  -5.8763663980255284e-04  -8.5267138748183866e-04  -1.1663508170443580e-03  -1.5309163477750627e-03  -1.9509798210947428e-03  -2.4286142648298056e-03  -2.9676608945545377e-03  -3.5720993099137431e-03  -4.2446597594694496e-03  -4.9949799130757184e-03  -5.8219380162332600e-03  -6.7372658564578639e-03  -7.7427477721207340e-03  -8.8463304128560162e-03  -1.0055364432793788e-02  -1.1375224868298527e-02  -1.2812707272131657e-02  -1.4376668748448805e-02  -1.6070614621116801e-02  -1.7906977671183894e-02  -1.9888502575194634e-02  -2.2024041941916806e-02  -2.4318788603929886e-02  -2.6776370781066587e-02  -2.9404212008690263e-02  -3.2207479563547345e-02  -3.5195261995185571e-02  -3.8338638001818005e-02  -4.1692331360293863e-02  -4.5230390024693666e-02  -4.8943961544114803e-02  -5.2851042331535050e-02  -5.6936728431520006e-02  -6.1219069293022746e-02  -6.5674548412170866e-02  -7.0312116853929504e-02  -7.5133990477866258e-02  -8.0127579252586484e-02  -8.5303936757272436e-02  -9.0644761854922068e-02  -9.6163818671319207e-02  -1.0184188538852500e-01  -1.0767584842013429e-01  -1.1367630158563302e-01  -1.1981046173532478e-01  -1.2604968348676898e-01  -1.3242639537586526e-01  -1.3889167534753979e-01  -1.4541548949679325e-01  -1.5198244522464832e-01  -1.5855987299929133e-01  -1.6509856242152005e-01  -1.7155365593590671e-01  -1.7790414436316196e-01  -1.8413473262335428e-01  -1.9015143606614909e-01  -1.9598494793627536e-01  -2.0167839380700439e-01  -2.0724120074811542e-01  -2.1270283101950266e-01  -2.1815328801744172e-01  -2.2364802148636673e-01  -2.2921035999652095e-01  -2.3486032501806278e-01  -2.4042365162687815e-01  -2.4606976400711397e-01  -2.5147923561839103e-01  -2.5648953975849764e-01  -2.6068959142502562e-01  -2.6425611658038461e-01  -2.6663269389917793e-01  -2.6806129221216252e-01  -2.6848463601091577e-01  -2.6748149208914856e-01  -2.6552756147956780e-01  -2.6264969531237081e-01  -2.5909362492407667e-01  -2.5489260699824007e-01  -2.5015337855881081e-01  -2.4498950968457298e-01  -2.3954042850189924e-01  -2.3384210138921144e-01  -2.2793130938965334e-01  -2.2189220047872465e-01  -2.1573402089421675e-01  -2.0950053244953193e-01  -2.0320724931133405e-01  -1.9686884834721993e-01  -1.9050001971460395e-01  -1.8411732512134316e-01  -1.7772259463456491e-01  -1.7132473689903344e-01  -1.6492886230550405e-01  -1.5854054089782366e-01  -1.5216192788315572e-01  -1.4579386096297092e-01  -1.3944020185314546e-01  -1.3310150653657166e-01  -1.2677959856432372e-01  -1.2047463424666134e-01  -1.1418757927883921e-01  -1.0791948709204729e-01  -1.0166987801196173e-01  -9.5439906974740626e-02  -8.9229227646489287e-02  -8.3038212791653979e-02  -7.6867078337022651e-02  -7.0715681856760734e-02  -6.4584230582240956e-02  -5.8472700649756300e-02  -5.2381102363098987e-02  -4.6309424403878682e-02  -4.0257641698333207e-02  -3.4225736495704186e-02  -2.8213684776276039e-02  -2.2221489066293326e-02  -2.2221899592358207e-02  -2.2222913137199648e-02  -2.2224478673303880e-02  -2.2226379729095375e-02  -2.2228277704638671e-02  -2.2229849120696997e-02  -2.2230854833941886e-02  -2.2231267363416192e-02  -2.4526487640553457e-01  -2.6084043076025754e-01  -3.8880724548589712e-01  -3.4673125765725232e-01  -3.5037428805783433e-01  -3.2792956613646840e-01  -3.1198360299417521e-01  -2.9753254956141134e-01  -2.8360991201463659e-01  -2.7083935034446049e-01  -2.6025590469149884e-01  -2.4972835088158776e-01  -2.3914367270570094e-01  -2.2823109617230100e-01  -2.1678892735836319e-01  -2.0505193116644763e-01  -1.9237087906644701e-01  -2.3948892512609504e-01  -2.2545310777972727e-01  -2.0449501483624949e-01  -1.7862964253956171e-01  -1.5201083186877576e-01  -1.2561114769718082e-01  -2.8231415083647105e-01  -2.3725429176111426e-01  -1.0175590550459331e-01  -8.1154405790277953e-02  -6.3254535207309254e-02  -2.4614925372083818e-01  -4.9469108447666166e-02  -4.0150034219861790e-02  -1.7925388156035460e-01  -3.2548812205517780e-02  -2.1475410873954684e-01  -1.9231876073124674e-01  -2.6648452673181312e-02  -1.6770875878216632e-01  -1.6489951845925832e-01  -1.3611934054305139e-01  -2.2256280484601459e-02  -1.5083799943149154e-01  -2.4568645566811645e-01  -1.8072693861770624e-02  -1.0446440893420512e-01  -2.5329794035646308e-01  -1.3471808979392827e-01  -1.4295777525642079e-02  -7.2676060823257754e-02  -1.1697323020775334e-01  -5.9328300184795991e-02  -1.0828200641700656e-02  -4.6899436758152675e-02  -2.6697047494942011e-01  -7.6424783310644071e-03  -9.9123761493387960e-02  -3.6773063908826627e-02  -2.6643026241535117e-01  -2.5657766451158975e-01  -2.8120192453460268e-02  -5.0849578826571784e-03  -7.9235049274088254e-02  -6.4434123356088599e-02  -8.7873725378529111e-02  -3.4252251279756306e-03  -2.0449944298963230e-03  -2.3697901524201320e-01  -2.0991153292256728e-02  -1.3587391491847865e-02  -2.1858173212039289e-01  -3.6000649713575383e-01  -3.9174719210853132e-01  -2.0021169547364093e-01  -9.5354550455225440e-03  -1.0966736841206597e-03  -1.7539595861471036e-01  -5.4897343313327967e-03  -1.4279218594140849e-01  -3.3427968073496397e-03  -1.1105324206205273e-01  -1.8054923216778082e-03  -9.2436280382528449e-02  -5.5557482867937213e-02  -7.3646132027759659e-02  -7.7334141745795208e-04  -2.7269076193333911e-02  -5.4527472519800788e-05  -4.7918749746447428e-02  -2.4352738156519016e-01  -1.8637160884560450e-04  -3.9717048485727344e-04  -2.5043611973936120e-01  -2.4511784679499354e-01  -2.6175642121639031e-01  -2.2595714487248600e-01  -2.4772227105835218e-01  -1.8726698721158527e-01  -1.6204164613301444e-01  -1.2920175986176524e-01  -1.2260759348126275e-01  -1.5461551448695299e-01  -1.7982652888669415e-01  -2.0378486566121778e-01  -8.9589451937342468e-02  -1.0826550168750465e-01  -1.7083341442499501e-02  -7.3302574113627526e-03  -1.2543825417769741e-01  -6.3726082679616391e-03  -4.3380208702470349e-02  -9.1836445474856483e-03  -1.2520537555155163e-02  -1.4265021277524212e-01  -1.6145874878753779e-02  -2.7301171794837403e-02  -2.0111528087212945e-02  -1.5766035653739174e-01  -2.4600549052088524e-02  -2.9383399237976063e-02  -1.1350793971665495e-01  -3.6137696144290146e-02  -1.7236963587288406e-01  -4.4499976675788568e-02  -5.6039145606611614e-02  -7.1539358576452383e-02  -1.8596978641109896e-01  -9.0378378476049473e-02  -6.4088039768713401e-05  -1.9871655527909213e-01  -2.1095149234509436e-01  -2.2278109935241852e-01  -2.3338565674716710e-01  -2.4468586884726704e-01  -2.5509439598157879e-01  -2.6578848235148089e-01  -2.7861302978944336e-01  -2.4325936717621494e-01  -2.9200673180431908e-01  -3.0614813104310906e-01  -3.2131621145099898e-01  -2.3355349102493897e-01  -3.3811585569200325e-01  -1.9223327364502490e-01  -2.1520510717906105e-01  -1.6647428286044061e-01  -1.3878904612117374e-01  -2.6875495489984903e-02  -3.1470296314179225e-01  7.3067801960936164e-06  -3.6880912451704460e-02  1.6562532537823862e-05  -2.4436491882511197e-01  -5.7601437301698284e-05  -2.6744843360672892e-02  -2.4477100712115130e-01  -2.4456167095541800e-01  -2.4482638974284823e-01  -2.4453406154303950e-01  -2.4480749114061739e-01  -2.4467681952709353e-01  -2.4496561086085894e-01  -2.4484485337353201e-01  -2.4515175471774123e-01  -2.4485217778546836e-01  -2.4522003225347080e-01  -2.4450557615899152e-01  -2.4506226875614481e-01  -2.4391405993824089e-01  -2.4477019661125937e-01  -2.4344161883403040e-01  -2.4461470117698147e-01  -2.4336319200959342e-01  -2.4485265410276036e-01  -2.4410056864769181e-01  -2.4534735459182247e-01  -2.4273570211376466e-01  -2.4633944480507930e-01  -2.4640862471413452e-01  -2.4408604684978430e-01  -2.4345356318408734e-01  -2.4735659355516226e-01  -2.4691695976855538e-01  -2.4771389517054476e-01  -2.4661197597696283e-01  -2.4722570340819389e-01  -2.4537146889695138e-01  -2.4567562704727405e-01  -2.4324094689851217e-01  -2.4312502449442355e-01  -2.3957762959191989e-01  -2.3933470332877291e-01  -2.3527488335560251e-01  -2.3459582856893460e-01  -2.3019126766613937e-01  -2.2906845959143193e-01  -2.2349632579250336e-01  -2.2266887142408595e-01  -2.1755382501401402e-01  -2.1586220152004906e-01  -2.1062599236287805e-01  -2.0856861251786749e-01  -2.0348944675546765e-01  -2.0096745777040850e-01  -1.9596869760223737e-01  -1.9310172523074151e-01  -2.4512690380137719e-01  -2.4584112924999435e-01  -1.8826588545469153e-01  -1.8486210966201078e-01  -1.8062274648434701e-01  -1.7678295918027653e-01  -1.7307732257372815e-01  -1.6920398633552666e-01  -1.6557822375222170e-01  -1.6139987526443503e-01  -1.5819983601285134e-01  -1.5367694145347624e-01  -2.4564099347418727e-01  -1.5098281207499750e-01  -1.4608105033254865e-01  -1.4394878243610193e-01  -1.3871500166357650e-01  -1.3716821846744129e-01  -1.3161153357834940e-01  -2.4715993273332312e-01  -2.4926591326989453e-01  -2.4331012938065377e-01  -1.3059465580627966e-01  -1.2473180075780517e-01  -2.4420181861591705e-01  -1.2416934608150051e-01  -1.1812598949423345e-01  -1.1810365649069064e-01  -1.1185036831532838e-01  -1.1224886971283696e-01  -1.0585194139087249e-01  -2.4251416760939215e-01  -1.0690036014873140e-01  -1.0021461070943341e-01  -1.0145865308426991e-01  -9.4831950046268834e-02  -9.6393776496502673e-02  -8.9760043003366263e-02  -2.4576220431240783e-01  -2.3025339162091285e-01  -9.1571346233285569e-02  -8.5016693125258266e-02  -2.4992706244007765e-01  -2.5352038273055683e-01  -2.4749327049679784e-01  -2.1153592905829369e-01  -8.7352990936925543e-02  -8.0422197738661272e-02  -8.3067704809089399e-02  -7.6135111443582204e-02  -7.8974110324992020e-02  -7.2268160712420537e-02  -1.2589941956903994e-01  -7.8052077490285546e-02  -1.0560256059281048e-01  -1.4880797034729137e-01  -7.5055448089388410e-02  -6.8620439257116639e-02  -6.5832672176473844e-02  -6.2358481132446124e-02  -6.5103486713791847e-02  -5.9102353293169596e-02  -6.1707045351829720e-02  -5.5936013811355316e-02  -5.8497745043517173e-02  -5.2983255540961359e-02  -5.5434668884355616e-02  -5.0158486820278479e-02  -5.2462170062535278e-02  -4.7506015856591290e-02  -4.9697364127170886e-02  -4.4953658856686708e-02  -4.6916270034329854e-02  -4.2394768788532489e-02  -4.4275980097807789e-02  -4.0032994481557019e-02  -4.1698170032914768e-02  -3.7793582323871464e-02  -3.9348262798951435e-02  -3.5615476171420912e-02  -1.7270463452666937e-01  -1.9054478626642180e-01  -3.6965459747561089e-02  -3.3553177372765940e-02  -3.4622167739529343e-02  -3.1501941968534251e-02  -2.4673619053625320e-01  -3.2355099094378684e-02  -2.9550040497575036e-02  -2.1317143268354236e-01  -2.3264013320388824e-01  -2.5307655256130090e-01  -2.5758903618068391e-01  -2.5925452037524693e-01  -2.6338348628803837e-01  -2.6641418763190777e-01  -2.7045282810047150e-01  -2.7491426603194546e-01  -2.7817069026297697e-01  -2.8468425942868258e-01  -2.8585644703410695e-01  -2.9433694409969197e-01  -2.9280852647400202e-01  -3.0296834244829984e-01  -2.9900387203071360e-01  -3.1116989713665066e-01  -3.0444550664466524e-01  -3.1364820679154920e-01  -3.0573763409154936e-01  -3.1474785644222841e-01  -3.0770323897910007e-01  -3.1423331150303213e-01  -3.0698406633588055e-01  -3.1216437303591282e-01  -3.0510746848969933e-01  -3.0910154395582645e-01  -3.0247061091528210e-01  -3.0545961734144533e-01  -2.9924588429230775e-01  -3.0081692228420565e-01  -2.9603510043140863e-01  -2.9316910786685701e-01  -2.9565178090504424e-01  -2.9001620471304951e-01  -2.9185595724942387e-01  -2.8662340204305992e-01  -2.8809410747431746e-01  -2.8311313252393755e-01  -2.8472970515075308e-01  -2.8481391709938636e-01  -2.7954178340390468e-01  -2.8007745375241755e-01  -2.7565054744319084e-01  -2.7486362127608671e-01  -2.7127926025821580e-01  -2.7175354022479425e-01  -2.6763954038130111e-01  -2.6772227908414603e-01  -2.6391588258646015e-01  -2.6919413011054927e-01  -2.6371517556280127e-01  -2.6010563087414174e-01  -2.5999357032288006e-01  -2.5634806302801794e-01  -2.5630431889175992e-01  -2.5265621906077412e-01  -2.5248529787148366e-01  -2.4893970884359665e-01  -3.1452161923085681e-01  -2.9605837267749457e-01  -2.9285830440048810e-01  -3.2219252623953243e-01  -2.4859895131833540e-01  -2.4515776162596284e-01  -2.4540254217602614e-01  -2.4164789483764595e-01  -2.4133229985229032e-01  -2.3786932018578963e-01  -2.3744573268432648e-01  -2.3403185623900330e-01  -2.3443540575748767e-01  -2.3062977029749010e-01  -2.3009331850722486e-01  -2.2675744883967283e-01  -2.7045825500866072e-01  -2.2612186576291490e-01  -2.2288392145260766e-01  -3.1973950211692598e-01  -2.7826331037525887e-01  -2.5621696193561438e-01  -3.1176185873488810e-01  -2.2220382531697305e-01  -2.1889582971872124e-01  -2.1983005287775856e-01  -2.1560895245633810e-01  -2.1496624537138070e-01  -2.1152927060882454e-01  -2.1218447176566371e-01  -2.0810526367868223e-01  -2.0744237568159363e-01  -2.0402766488121948e-01  -2.9308318068720635e-01  -2.0336274888470338e-01  -1.9988090342841278e-01  -2.3082267981377827e-01  -2.7085514352201834e-01  -1.6931998284311417e-01  -2.8420153789024877e-01  -2.0057099018233135e-01  -1.9640387807389398e-01  -1.9571975124166602e-01  -1.9224114412243865e-01  -3.0259943107807268e-02  -2.7683376982237776e-02  -2.8232023370574857e-02  -2.5861725412527528e-02  -2.6243471749587667e-02  -2.4100355226777510e-02  -1.9139663597633369e-01  -1.8796291155943320e-01  -1.3609706081718834e-01  -1.8869961872894347e-01  -1.8444696167477834e-01  -1.8384142328544559e-01  -1.8022296890605355e-01  -2.4463224669882497e-01  -2.6207006408388989e-01  -2.5603909717356771e-01  -4.5125436915491257e-02  -2.4332714781155850e-02  -2.2420373194074861e-02  -6.0111109358793283e-02  -3.4296473406744223e-02  -2.2102478861318175e-02  -2.0643781409456899e-02  -2.0809150412655589e-02  -1.9222716824312081e-02  -1.9257016528138209e-02  -1.7846719942296876e-02  -1.7776828511913745e-02  -1.6548876895860678e-02  -1.6361482586514139e-02  -1.5282934770316269e-02  -1.5016636221879927e-02  -1.4056170799108956e-02  -1.3734325344000722e-02  -1.2892338486912010e-02  -1.2513323269408589e-02  -1.1781084018159426e-02  -1.1370588199131393e-02